 Q-Chem 4.4, Q-Chem, Inc., Pleasanton, CA (2016)
 Q-Chem 4.4.2 for Intel X86 Linux

User input:
--------------------------------------------------------------
$comment
SP
$end

$rem
MEM_STATIC 5000
MEM_TOTAL 20000
JOBTYPE SP
EXCHANGE B3LYP
BASIS 6-31g(d,p)
$end

$molecule
0 1
O          10.263000     12.100000      9.309000
C          11.515000     12.743000      9.282000
H          12.315000     12.032000      9.522000
H          11.470000     13.610000      9.953000
H          11.699000     13.073000      8.252000
O           9.215000     13.993000      8.925000
C           9.129000     12.824000      9.141000
C           7.850000     12.062000      9.026000
H           7.927000     11.487000      8.094000
H           7.048000     12.782000      8.824000
C           7.446000     11.168000     10.334000
H           8.201000     10.376000     10.402000
H           7.705000     11.732000     11.238000
C           5.956000     10.687000     10.360000
H           5.321000     11.447000     10.832000
H           5.699000     10.456000      9.319000
C           5.841000      9.393000     11.224000
C           5.976000      9.713000     12.745000
C           4.911000     10.393000     13.358000
H           4.041000     10.711000     12.792000
C           5.083000     10.677000     14.738000
H           4.343000     11.277000     15.259000
C           6.355000     10.729000     15.316000
H           6.520000     11.275000     16.240000
C           7.364000      9.988000     14.639000
H           8.344000      9.838000     15.082000
C           7.245000      9.389000     13.404000
H           8.116000      8.918000     12.958000
C           7.706000      4.268000     11.784000
C           5.427000      4.034000     12.495000
C           4.014000      1.748000      8.900000
C           7.922000      6.362000      7.114000
C           2.578000      4.508000      7.372000
C           6.624000      4.766000     12.415000
C           5.654000      5.569000      5.793000
C           6.099000      1.483000     10.163000
C           3.098000      6.755000     10.668000
C           6.796000      7.194000      7.169000
C           4.938000      8.219000     10.712000
C           3.103000      7.317000      9.427000
C           4.625000      7.393000      7.062000
C           4.464000      4.800000      5.856000
C           4.904000      6.257000     12.258000
C           4.101000      2.669000      6.904000
C           6.441000      8.107000     10.720000
C           7.161000      7.941000      9.425000
C           2.955000      3.172000      7.553000
C           8.037000      2.909000      7.557000
C           6.138000      1.708000      7.772000
C           6.788000      1.604000      8.946000
C           6.499000      2.190000     11.322000
C           8.228000      7.010000      9.487000
C           4.227000      7.208000     11.433000
C           5.380000      2.753000     11.922000
C           5.698000      6.880000      6.383000
C           4.398000      4.950000     12.407000
C           2.645000      6.640000      8.272000
C           8.972000      4.930000      8.541000
C           4.680000      1.528000     10.170000
C           4.204000      8.179000      9.354000
C           8.346000      3.020000      9.989000
C           3.439000      6.630000      7.133000
C           2.560000      5.433000     10.847000
C           6.242000      3.337000      5.976000
C           6.747000      4.695000      5.795000
C           2.211000      4.713000      9.716000
C           8.622000      6.255000      8.341000
C           6.421000      7.999000      8.244000
C           8.556000      4.196000      7.412000
C           7.064000      6.977000     11.478000
C           3.192000      3.260000     11.062000
C           5.004000      8.091000      8.208000
C           2.177000      5.311000      8.435000
C           8.912000      4.362000      9.821000
C           2.950000      2.584000      8.763000
C           7.672000      2.967000     11.212000
C           4.750000      1.764000      7.734000
C           3.218000      4.523000     11.702000
C           2.546000      3.358000      9.861000
C           6.265000      6.125000     12.232000
C           8.170000      6.432000     10.774000
C           6.924000      2.451000      6.841000
C           4.262000      2.363000     11.228000
C           3.335000      5.342000      6.523000
C           7.905000      5.068000      6.554000
C           4.888000      3.491000      6.073000
C           8.448000      5.088000     10.932000
C           7.900000      2.399000      8.863000
O          -5.130000     -8.952000      7.174000
C          -6.468000     -9.047000      7.718000
H          -6.927000     -9.888000      7.184000
H          -7.031000     -8.148000      7.438000
H          -6.542000     -9.144000      8.808000
O          -4.785000     -6.779000      7.916000
C          -4.388000     -7.809000      7.397000
C          -3.009000     -7.895000      6.859000
H          -3.205000     -8.057000      5.792000
H          -2.603000     -8.821000      7.285000
C          -1.995000     -6.683000      7.025000
H          -2.497000     -5.885000      6.464000
H          -1.979000     -6.284000      8.047000
C          -0.657000     -7.073000      6.364000
H          -0.334000     -7.861000      7.055000
H          -0.871000     -7.476000      5.367000
C           0.519000     -6.005000      6.184000
C           0.623000     -5.487000      4.769000
C           0.152000     -4.188000      4.512000
H          -0.407000     -3.607000      5.240000
C           0.439000     -3.600000      3.280000
H           0.063000     -2.613000      3.028000
C           1.057000     -4.341000      2.215000
H           1.071000     -3.867000      1.238000
C           1.442000     -5.720000      2.435000
H           1.817000     -6.383000      1.661000
C           1.298000     -6.234000      3.776000
H           1.721000     -7.215000      3.973000
C           5.946000     -5.305000      6.728000
C           5.148000     -3.056000      6.846000
C           5.897000     -2.438000     11.366000
C           3.561000     -8.281000     10.133000
C           2.568000     -3.141000     12.200000
C           5.034000     -4.346000      6.260000
C           2.843000     -6.745000     12.370000
C           7.210000     -3.536000      9.634000
C           1.348000     -3.018000      8.389000
C           2.182000     -7.866000     10.254000
C           0.971000     -5.086000      7.334000
C           0.668000     -3.805000      9.324000
C           0.960000     -6.008000     10.992000
C           2.935000     -5.442000     12.878000
C           2.977000     -3.546000      6.664000
C           4.789000     -3.802000     12.758000
C           1.792000     -6.242000      6.909000
C           2.081000     -7.301000      7.889000
C           3.923000     -2.855000     12.320000
C           6.675000     -6.817000     10.851000
C           6.778000     -4.732000     11.759000
C           7.402000     -4.679000     10.480000
C           7.030000     -3.689000      8.238000
C           3.416000     -7.709000      7.773000
C           1.695000     -3.758000      7.255000
C           6.074000     -2.756000      7.823000
C           1.893000     -7.010000     11.348000
C           3.833000     -2.565000      7.092000
C           0.918000     -3.581000     10.700000
C           5.506000     -7.961000      9.019000
C           6.468000     -2.436000     10.065000
C           0.396000     -5.076000      8.721000
C           7.041000     -6.092000      8.503000
C           1.063000     -4.715000     11.537000
C           2.209000     -1.992000      8.803000
C           5.119000     -6.235000     12.627000
C           4.175000     -7.280000     12.227000
C           2.495000     -1.845000     10.167000
C           4.143000     -8.237000      8.858000
C           1.476000     -7.312000      9.181000
C           5.677000     -7.742000     10.397000
C           3.165000     -5.980000      6.282000
C           4.456000     -1.446000      9.095000
C           0.683000     -6.221000      9.591000
C           1.819000     -2.621000     11.118000
C           6.137000     -7.070000      8.087000
C           4.559000     -2.023000     11.462000
C           6.937000     -4.958000      7.668000
C           5.992000     -3.595000     12.158000
C           3.456000     -1.734000      8.177000
C           3.849000     -1.514000     10.330000
C           3.678000     -4.632000      6.125000
C           4.064000     -6.916000      6.869000
C           6.383000     -6.038000     12.020000
C           5.798000     -1.915000      8.918000
C           2.062000     -4.405000     12.480000
C           4.551000     -8.013000     11.101000
C           4.334000     -5.153000     13.023000
C           5.478000     -6.626000      6.969000
C           7.319000     -5.961000      9.890000
$end

--------------------------------------------------------------

             Standard Nuclear Orientation (Angstroms)
    I     Atom           X                Y                Z
 ----------------------------------------------------------------
    1      O      12.8281164669     0.5301043212     2.1416753078
    2      C      13.8388184029     1.2068796225     2.8502928268
    3      H      13.4624166500     2.1635904779     3.2325846779
    4      H      14.7141135601     1.2994179867     2.1951210638
    5      H      14.0901058845     0.6037909129     3.7316523505
    6      O      14.2147448678    -1.0805743529     1.5829402304
    7      C      13.1153581743    -0.6280985696     1.4979251504
    8      C      11.9678865080    -1.3719435175     0.8981639742
    9      H      11.3468343112    -1.6961148209     1.7433770449
   10      H      12.3564418248    -2.3098833579     0.4837950304
   11      C      11.1475861371    -0.5734885750    -0.2692661120
   12      H      10.6606821015     0.2724250188     0.2300010028
   13      H      11.8653922867    -0.0202164565    -0.8865482959
   14      C      10.2105330210    -1.4757525131    -1.1410391579
   15      H      10.7689521549    -1.8953994127    -1.9870140693
   16      H       9.7898291510    -2.2201607609    -0.4540489001
   17      C       9.0589861236    -0.6082835461    -1.7373564680
   18      C       9.5783128413     0.3114811645    -2.8855718822
   19      C       9.9368062978    -0.3064418180    -4.0947234978
   20      H       9.8842625222    -1.3836743006    -4.2179684981
   21      C      10.4183032925     0.5658795193    -5.1055924945
   22      H      10.7978849687     0.1527058192    -6.0352409467
   23      C      10.9510778733     1.8194471122    -4.7901697052
   24      H      11.6234544160     2.3229454642    -5.4782948351
   25      C      10.5096483817     2.3779118098    -3.5577946871
   26      H      10.7416574305     3.4045539305    -3.2907239901
   27      C       9.7668988259     1.7354127785    -2.5915105196
   28      H       9.5598909321     2.2466207778    -1.6559828005
   29      C       4.9305801886     2.7581061271    -0.4407705649
   30      C       4.0449343798     1.6228830026    -2.3593684797
   31      C       1.0242526066    -0.8397425246    -0.1328583994
   32      C       6.4274391685    -0.6184165243     3.1087223537
   33      C       2.9647698322    -3.7118275383    -0.1321024436
   34      C       5.1149283196     2.1984953441    -1.6530991252
   35      C       4.7875207047    -2.8011990690     2.8560530156
   36      C       1.6054900845     1.5221165506     0.1776310576
   37      C       5.6213678459    -2.0633566372    -2.6635162149
   38      C       6.8442201147    -1.6702900317     2.2822958491
   39      C       7.6029815229    -1.1877282352    -1.7484675077
   40      C       6.0071386052    -3.0002734619    -1.7528473481
   41      C       6.3058754937    -3.3679810494     1.0204237171
   42      C       3.6831787786    -3.3700011256     2.1717116308
   43      C       5.9301967006     0.3727260811    -2.7522051552
   44      C       1.6866590667    -2.2952575025     1.3779426567
   45      C       7.9922395766    -0.0611211713    -0.8260512831
   46      C       7.9239442511    -0.2763286414     0.6477202370
   47      C       1.8567585962    -2.8917370562     0.1119235841
   48      C       3.2787551425     0.8656426630     3.2353723940
   49      C       1.5541525489     0.0191493414     2.0504580719
   50      C       1.8050735548     1.2380690237     1.5377540082
   51      C       2.5329877032     2.2857748474    -0.5705027360
   52      C       7.4084396933     0.8366953347     1.3580206520
   53      C       6.5046810755    -0.9303836358    -2.6288043094
   54      C       2.7625658321     1.6592667350    -1.7886617846
   55      C       6.0989872677    -2.8392125984     2.2666741683
   56      C       4.5558572685     0.5263569486    -3.0243717991
   57      C       5.0891901283    -3.8131912549    -1.0466935012
   58      C       5.5936827181     1.4784647661     2.7966453835
   59      C       1.1827133457     0.4872394072    -0.6975398555
   60      C       7.1683098775    -2.5322793396    -1.1257614067
   61      C       3.7640579587     2.5347746352     1.5030601716
   62      C       5.2093923150    -3.9309843213     0.3315420475
   63      C       4.2259128871    -1.9096276671    -2.9769517928
   64      C       2.9089430937    -1.5340849397     3.3318943159
   65      C       4.3270882458    -1.7246479466     3.6225832704
   66      C       3.3061886687    -2.6151426812    -2.2181910089
   67      C       6.6980572591     0.6698877327     2.5852569867
   68      C       7.5995484622    -1.5494209221     1.1164722150
   69      C       4.6390706726     0.7303858200     3.5146612142
   70      C       7.2244982337     1.2207956557    -0.9088491022
   71      C       2.4207756340    -0.6105686796    -2.5063104808
   72      C       7.2165463409    -2.6244592757     0.2707471335
   73      C       3.7083081917    -3.6163878138    -1.3041182143
   74      C       5.1887204398     2.4014135518     1.8225842499
   75      C       1.4430446148    -1.9652000159    -0.7713877168
   76      C       3.6338425818     2.8110352458     0.1394113786
   77      C       1.1466870656    -1.0243808398     1.2281803568
   78      C       3.6870835467    -0.6153773523    -3.1402553891
   79      C       2.1624358046    -1.8410931621    -1.9692899686
   80      C       6.2501816826     1.3826468177    -1.8872827789
   81      C       6.9955636465     1.7686302232     0.3808575472
   82      C       2.4016435096    -0.2242741402     3.1725588161
   83      C       1.9500983332     0.5568773528    -1.8797343562
   84      C       3.8974942266    -3.9560104262     0.8973663133
   85      C       5.1442251984    -0.5481930206     3.6890287954
   86      C       2.6200508620    -2.5028804326     2.4129723544
   87      C       5.8449099671     2.5058514170     0.5835519515
   88      C       2.9058883223     1.7298542540     2.1872246657
   89      O     -12.2076610438    -4.9883346584    -3.0972228264
   90      C     -12.6733258368    -5.5915538728    -4.3278681367
   91      H     -13.6739151135    -5.9729482498    -4.0902183343
   92      H     -12.0474717707    -6.4631298049    -4.5564115300
   93      H     -12.6631519642    -4.9487989525    -5.2165455837
   94      O      -9.9717283186    -4.9987421997    -3.7233334648
   95      C     -10.8668176038    -4.6911240439    -2.9538815549
   96      C     -10.5567032910    -3.9953633667    -1.6817859637
   97      H     -10.8956841483    -4.7341832292    -0.9453172345
   98      H     -11.2426075299    -3.1392914587    -1.6602391936
   99      C      -9.0684448497    -3.5591351747    -1.3361159237
  100      H      -8.5495915787    -4.5248744910    -1.2952765281
  101      H      -8.5715224532    -3.0553184174    -2.1746729026
  102      C      -9.0709585052    -2.8683740065     0.0430532791
  103      H      -9.6242342891    -1.9558928202    -0.2099644900
  104      H      -9.6337463322    -3.4985820965     0.7418534116
  105      C      -7.7043421806    -2.4789313813     0.7756474799
  106      C      -7.3473474928    -3.4360272077     1.8882513501
  107      C      -6.3136245598    -4.3581845440     1.6509040420
  108      H      -5.8686292944    -4.5082913478     0.6713770330
  109      C      -5.8098780878    -5.0945501571     2.7232576105
  110      H      -5.0369162892    -5.8428836311     2.5763696614
  111      C      -6.4242896886    -5.0548600616     4.0217771834
  112      H      -6.0876963548    -5.7955355671     4.7411558898
  113      C      -7.5655031070    -4.1911375298     4.2451184506
  114      H      -8.1530669591    -4.1750445177     5.1582338512
  115      C      -7.9403910192    -3.3093350899     3.1657220868
  116      H      -8.6986280557    -2.5625616744     3.3836786478
  117      C      -5.2041028870     1.5412407415     3.5730184917
  118      C      -3.3438863387     0.3004285345     2.7311702511
  119      C      -1.9985849514     3.3938727179    -0.4301731756
  120      C      -8.3853846233     2.8697369264    -0.2023451201
  121      C      -3.6544475164     1.7292258990    -3.0299955030
  122      C      -4.6581806917     0.2834674237     3.2723122604
  123      C      -6.9235942460     3.2118453518    -2.5740786039
  124      C      -2.7963192278     3.6456631902     1.8566627570
  125      C      -4.3780446873    -1.5147845452    -0.7983921843
  126      C      -8.4350180469     1.8120335524    -1.1858628352
  127      C      -6.5620485251    -1.7526584895     0.0414418608
  128      C      -5.2315347179    -1.1779874223    -1.8539093398
  129      C      -7.0092292721     0.7711155442    -2.7265471215
  130      C      -5.6133069558     3.1611215558    -3.0689637560
  131      C      -4.5368397517    -1.2173006156     1.6087508192
  132      C      -3.4809556884     3.8892435342    -2.0373473269
  133      C      -7.4252819306    -1.0403783747     1.0101973128
  134      C      -8.2105468969     0.1124807769     0.5415004925
  135      C      -2.9277336258     2.6868954471    -2.3321581596
  136      C      -5.9080480552     5.0759254740     0.9601313831
  137      C      -3.8149560948     5.0208218147     0.0666955252
  138      C      -3.7075956442     4.6743306231     1.4438097499
  139      C      -3.1594624247     2.7149054900     2.8598786470
  140      C      -8.1682178352     1.1391745930     1.4934737371
  141      C      -5.0884103445    -1.7131209946     0.3890455134
  142      C      -2.6462616065     1.4661897787     2.4938404079
  143      C      -7.6014594398     1.9898644133    -2.3201684526
  144      C      -3.2868761911    -0.6597720436     1.6797014247
  145      C      -4.7811489123    -0.2321418683    -2.8071043954
  146      C      -7.5751067490     3.4900229127     1.8188218847
  147      C      -1.9589680018     3.0124144969     0.9378787690
  148      C      -6.5818331922    -1.3255975134    -1.3979057309
  149      C      -5.3783231588     3.6714645819     2.9399208003
  150      C      -5.7004500204     0.7541615136    -3.2425824218
  151      C      -3.0858603937    -0.9769194989    -0.7186805592
  152      C      -5.6687954891     4.8445411784    -1.4488633279
  153      C      -7.0044266268     4.2615137531    -1.5878938477
  154      C      -2.6972308157     0.0128215111    -1.6315227056
  155      C      -8.2997880910     2.4983111751     1.1470996342
  156      C      -8.2707975267     0.4668556991    -0.8391509030
  157      C      -7.1551095955     4.3816935986     0.8165186476
  158      C      -6.8011053209    -0.5171841350     2.3077231690
  159      C      -1.8028015463     0.6443831762     0.3572035565
  160      C      -7.4610406871    -0.2130634861    -1.7714779714
  161      C      -3.5372538725     0.3586560673    -2.6984400987
  162      C      -6.6398489202     3.0856157707     2.8299666108
  163      C      -2.0376368497     2.3505294120    -1.3691059182
  164      C      -4.4453341114     2.7159790124     3.3988061496
  165      C      -2.9610393239     4.3241840381    -0.8581222712
  166      C      -2.5066772009    -0.5427674575     0.5017733868
  167      C      -1.9237076460     0.9812401403    -0.9732877441
  168      C      -5.3869486079    -0.6840672357     2.5856311063
  169      C      -7.3160394878     0.7962066945     2.5044802084
  170      C      -5.1390374742     5.3225274201    -0.2258181127
  171      C      -1.8223842511     1.6589283059     1.3684249454
  172      C      -4.9733999436     1.9486229111    -3.4099447704
  173      C      -7.6977899785     4.0866965445    -0.3898841624
  174      C      -4.8664615172     4.1648116042    -2.3642828511
  175      C      -6.5685102465     1.7829684251     3.2534777520
  176      C      -5.0046742790     4.6746904960     2.0060373601
 ----------------------------------------------------------------

    9   -5804.2457732877      8.68E-06 Convergence criterion met
 Total energy in the final basis set = -5804.2457732877

                    Orbital Energies (a.u.)
 --------------------------------------------------------------

 Alpha MOs
 -- Occupied --
-19.193 -19.183 -19.134 -19.127 -10.316 -10.310 -10.247 -10.243
-10.241 -10.240 -10.239 -10.238 -10.236 -10.234 -10.232 -10.229
-10.229 -10.227 -10.227 -10.227 -10.226 -10.224 -10.224 -10.224
-10.223 -10.222 -10.222 -10.222 -10.222 -10.221 -10.221 -10.221
-10.220 -10.219 -10.219 -10.219 -10.219 -10.219 -10.219 -10.218
-10.218 -10.218 -10.218 -10.217 -10.217 -10.217 -10.217 -10.217
-10.216 -10.216 -10.216 -10.216 -10.216 -10.216 -10.216 -10.216
-10.215 -10.215 -10.215 -10.215 -10.215 -10.215 -10.215 -10.215
-10.215 -10.214 -10.214 -10.214 -10.214 -10.214 -10.214 -10.214
-10.213 -10.213 -10.213 -10.213 -10.213 -10.213 -10.212 -10.212
-10.212 -10.212 -10.212 -10.212 -10.212 -10.212 -10.212 -10.212
-10.212 -10.212 -10.211 -10.211 -10.211 -10.211 -10.211 -10.211
-10.211 -10.210 -10.210 -10.210 -10.210 -10.210 -10.210 -10.210
-10.209 -10.209 -10.209 -10.209 -10.209 -10.209 -10.209 -10.209
-10.209 -10.209 -10.208 -10.208 -10.208 -10.208 -10.208 -10.208
-10.208 -10.208 -10.208 -10.207 -10.207 -10.207 -10.207 -10.207
-10.207 -10.207 -10.207 -10.207 -10.207 -10.206 -10.206 -10.205
-10.205 -10.205 -10.204 -10.204 -10.204 -10.204 -10.203 -10.200
-10.200 -10.199 -10.199 -10.198  -1.104  -1.087  -1.014  -1.010
 -0.984  -0.979  -0.967  -0.963  -0.963  -0.962  -0.958  -0.958
 -0.934  -0.934  -0.928  -0.925  -0.925  -0.923  -0.921  -0.921
 -0.918  -0.917  -0.898  -0.893  -0.890  -0.888  -0.886  -0.885
 -0.873  -0.870  -0.855  -0.846  -0.841  -0.838  -0.837  -0.836
 -0.834  -0.832  -0.823  -0.814  -0.802  -0.799  -0.797  -0.796
 -0.795  -0.794  -0.792  -0.792  -0.789  -0.788  -0.783  -0.781
 -0.771  -0.769  -0.767  -0.766  -0.766  -0.763  -0.762  -0.758
 -0.757  -0.747  -0.744  -0.742  -0.733  -0.730  -0.717  -0.715
 -0.714  -0.712  -0.710  -0.710  -0.709  -0.709  -0.708  -0.707
 -0.706  -0.705  -0.703  -0.703  -0.702  -0.700  -0.674  -0.673
 -0.659  -0.657  -0.654  -0.653  -0.649  -0.644  -0.632  -0.630
 -0.629  -0.625  -0.625  -0.624  -0.622  -0.618  -0.617  -0.614
 -0.613  -0.613  -0.611  -0.610  -0.609  -0.608  -0.608  -0.607
 -0.606  -0.603  -0.603  -0.599  -0.565  -0.562  -0.562  -0.561
 -0.560  -0.559  -0.558  -0.556  -0.556  -0.554  -0.553  -0.552
 -0.537  -0.533  -0.532  -0.530  -0.528  -0.527  -0.525  -0.523
 -0.522  -0.522  -0.520  -0.515  -0.514  -0.513  -0.512  -0.512
 -0.508  -0.504  -0.502  -0.496  -0.494  -0.490  -0.488  -0.486
 -0.484  -0.481  -0.481  -0.479  -0.477  -0.475  -0.475  -0.473
 -0.473  -0.471  -0.468  -0.467  -0.467  -0.466  -0.466  -0.465
 -0.464  -0.463  -0.463  -0.462  -0.460  -0.460  -0.458  -0.456
 -0.455  -0.453  -0.452  -0.451  -0.450  -0.445  -0.444  -0.441
 -0.440  -0.440  -0.439  -0.437  -0.436  -0.436  -0.435  -0.433
 -0.430  -0.429  -0.428  -0.428  -0.427  -0.425  -0.424  -0.423
 -0.422  -0.421  -0.421  -0.420  -0.419  -0.419  -0.418  -0.417
 -0.416  -0.415  -0.415  -0.414  -0.413  -0.413  -0.412  -0.411
 -0.410  -0.408  -0.408  -0.405  -0.405  -0.401  -0.401  -0.398
 -0.395  -0.393  -0.390  -0.387  -0.385  -0.385  -0.384  -0.383
 -0.379  -0.376  -0.373  -0.372  -0.370  -0.367  -0.365  -0.365
 -0.364  -0.363  -0.362  -0.360  -0.359  -0.358  -0.358  -0.357
 -0.356  -0.354  -0.354  -0.353  -0.353  -0.352  -0.352  -0.352
 -0.349  -0.349  -0.348  -0.347  -0.346  -0.346  -0.343  -0.342
 -0.341  -0.341  -0.340  -0.339  -0.338  -0.337  -0.334  -0.333
 -0.333  -0.329  -0.328  -0.326  -0.326  -0.325  -0.323  -0.322
 -0.311  -0.308  -0.300  -0.294  -0.288  -0.283  -0.269  -0.269
 -0.268  -0.266  -0.266  -0.264  -0.264  -0.264  -0.263  -0.263
 -0.261  -0.260  -0.260  -0.258  -0.258  -0.256  -0.254  -0.252
 -0.251  -0.244  -0.244  -0.243  -0.223  -0.218  -0.211  -0.211
 -0.207  -0.207  -0.204  -0.203  -0.197  -0.195

          Ground-State Mulliken Net Atomic Charges

     Atom                 Charge (a.u.)
  ----------------------------------------
      1 O                    -0.462474
      2 C                    -0.074648
      3 H                     0.118859
      4 H                     0.127331
      5 H                     0.120006
      6 O                    -0.458539
      7 C                     0.578305
      8 C                    -0.263899
      9 H                     0.136032
     10 H                     0.134868
     11 C                    -0.198970
     12 H                     0.122761
     13 H                     0.117306
     14 C                    -0.187476
     15 H                     0.117752
     16 H                     0.117271
     17 C                     0.006857
     18 C                     0.054180
     19 C                    -0.090718
     20 H                     0.105461
     21 C                    -0.104968
     22 H                     0.084978
     23 C                    -0.073884
     24 H                     0.103337
     25 C                    -0.100005
     26 H                     0.081779
     27 C                    -0.077084
     28 H                     0.109749
     29 C                     0.014188
     30 C                     0.010071
     31 C                     0.013387
     32 C                    -0.018529
     33 C                     0.010641
     34 C                    -0.015737
     35 C                     0.012233
     36 C                    -0.004972
     37 C                     0.015945
     38 C                     0.007525
     39 C                    -0.081640
     40 C                     0.024613
     41 C                    -0.005601
     42 C                    -0.013549
     43 C                    -0.000331
     44 C                    -0.030385
     45 C                    -0.070546
     46 C                     0.018066
     47 C                     0.013053
     48 C                     0.011064
     49 C                     0.009428
     50 C                     0.033173
     51 C                    -0.016318
     52 C                     0.014353
     53 C                     0.041604
     54 C                     0.029772
     55 C                    -0.013567
     56 C                    -0.014620
     57 C                    -0.020332
     58 C                     0.018924
     59 C                    -0.026082
     60 C                    -0.012255
     61 C                    -0.012620
     62 C                     0.012188
     63 C                    -0.029918
     64 C                    -0.015238
     65 C                    -0.029100
     66 C                     0.014313
     67 C                    -0.016509
     68 C                     0.001462
     69 C                     0.005308
     70 C                     0.006824
     71 C                     0.017320
     72 C                     0.010239
     73 C                    -0.018816
     74 C                    -0.026120
     75 C                     0.005831
     76 C                    -0.011536
     77 C                     0.001194
     78 C                    -0.027725
     79 C                     0.002332
     80 C                     0.018562
     81 C                    -0.012519
     82 C                    -0.024015
     83 C                    -0.013167
     84 C                    -0.018205
     85 C                     0.001719
     86 C                     0.039822
     87 C                     0.007283
     88 C                     0.015338
     89 O                    -0.481217
     90 C                    -0.084512
     91 H                     0.125235
     92 H                     0.132145
     93 H                     0.129398
     94 O                    -0.471689
     95 C                     0.592086
     96 C                    -0.257850
     97 H                     0.134759
     98 H                     0.126988
     99 C                    -0.182003
    100 H                     0.111794
    101 H                     0.127315
    102 C                    -0.183900
    103 H                     0.109596
    104 H                     0.113910
    105 C                     0.011046
    106 C                     0.070414
    107 C                    -0.098850
    108 H                     0.101000
    109 C                    -0.092734
    110 H                     0.091528
    111 C                    -0.091634
    112 H                     0.093754
    113 C                    -0.095111
    114 H                     0.097645
    115 C                    -0.110897
    116 H                     0.094177
    117 C                    -0.003658
    118 C                    -0.006071
    119 C                    -0.033014
    120 C                    -0.011045
    121 C                    -0.000455
    122 C                    -0.016632
    123 C                     0.008509
    124 C                     0.010136
    125 C                     0.001962
    126 C                    -0.015351
    127 C                    -0.082327
    128 C                     0.020527
    129 C                     0.009014
    130 C                    -0.004392
    131 C                     0.028423
    132 C                    -0.007654
    133 C                    -0.083491
    134 C                     0.031103
    135 C                     0.041493
    136 C                    -0.022517
    137 C                     0.011000
    138 C                    -0.007395
    139 C                    -0.015274
    140 C                     0.032602
    141 C                     0.037915
    142 C                     0.015531
    143 C                     0.000330
    144 C                    -0.006690
    145 C                     0.001876
    146 C                    -0.020870
    147 C                     0.008735
    148 C                     0.002625
    149 C                     0.011235
    150 C                    -0.012072
    151 C                    -0.009793
    152 C                     0.014890
    153 C                    -0.039874
    154 C                    -0.005894
    155 C                    -0.013285
    156 C                    -0.000355
    157 C                     0.029334
    158 C                     0.010306
    159 C                    -0.003081
    160 C                    -0.008888
    161 C                    -0.011010
    162 C                     0.010799
    163 C                    -0.011174
    164 C                     0.004418
    165 C                     0.007402
    166 C                    -0.016968
    167 C                     0.024855
    168 C                     0.009718
    169 C                     0.001990
    170 C                    -0.014053
    171 C                    -0.006522
    172 C                     0.000101
    173 C                     0.021546
    174 C                    -0.006638
    175 C                    -0.013190
    176 C                    -0.013126
  ----------------------------------------
  Sum of atomic charges =     0.000000

                    Cartesian Multipole Moments
 -----------------------------------------------------------------
    Charge (ESU x 10^10)
                 0.0000
    Dipole Moment (Debye)
         X      -1.3119      Y      -0.9827      Z       0.0137
       Tot       1.6392
    Quadrupole Moments (Debye-Ang)
        XX    -755.8531     XY      47.2063     YY    -800.7282
        XZ     -20.7880     YZ      -2.8406     ZZ    -798.0193

 Total job time:  851.14s(wall), 7178.11s(cpu)
        *  Thank you very much for using Q-Chem.  Have a nice day.  *
