 Q-Chem 4.4, Q-Chem, Inc., Pleasanton, CA (2016)
 Q-Chem 4.4.2 for Intel X86 Linux

User input:
--------------------------------------------------------------
$comment
SP
$end

$rem
MEM_STATIC 5000
MEM_TOTAL 20000
JOBTYPE SP
EXCHANGE B3LYP
BASIS 6-31g(d,p)
$end

$molecule
0 1
O         -19.789000     -1.743000     -7.490000
C         -20.585000     -2.980000     -7.485000
H         -20.679000     -3.368000     -6.463000
H         -20.153000     -3.789000     -8.086000
H         -21.599000     -2.707000     -7.805000
O         -21.439000     -0.640000     -6.236000
C         -20.307000     -0.613000     -6.804000
C         -19.519000      0.705000     -6.923000
H         -18.598000      0.415000     -6.401000
H         -19.995000      1.526000     -6.372000
C         -19.175000      1.141000     -8.378000
H         -18.520000      0.449000     -8.921000
H         -20.177000      1.134000     -8.823000
C         -18.495000      2.520000     -8.382000
H         -19.067000      3.272000     -7.824000
H         -17.529000      2.411000     -7.873000
C         -18.170000      3.131000     -9.769000
C         -18.352000      2.242000    -10.948000
C         -19.656000      2.110000    -11.463000
H         -20.468000      2.466000    -10.836000
C         -19.892000      1.300000    -12.596000
H         -20.903000      1.207000    -12.981000
C         -18.888000      0.666000    -13.299000
H         -19.207000      0.044000    -14.131000
C         -17.569000      0.882000    -12.875000
H         -16.777000      0.342000    -13.385000
C         -17.321000      1.670000    -11.714000
H         -16.274000      1.709000    -11.428000
C         -14.196000      6.391000    -11.898000
C         -16.186000      6.996000    -13.198000
C         -16.788000     11.041000    -11.270000
C         -15.100000      6.806000     -6.978000
C         -19.225000     10.006000     -9.059000
C         -15.364000      6.025000    -12.544000
C         -16.849000      8.871000     -6.523000
C         -14.687000      9.945000    -11.942000
C         -19.536000      6.457000    -11.049000
C         -16.436000      6.529000     -6.850000
C         -18.448000      4.630000     -9.976000
C         -19.835000      6.533000     -9.673000
C         -18.513000      7.218000     -7.208000
C         -17.588000      9.833000     -7.242000
C         -17.597000      5.543000    -12.198000
C         -17.119000     11.246000     -9.058000
C         -17.000000      4.175000     -9.704000
C         -16.323000      4.737000     -8.472000
C         -18.394000     10.983000     -9.674000
C         -13.553000      9.377000     -8.725000
C         -14.795000     10.928000     -9.753000
C         -14.069000     10.212000    -10.685000
C         -14.503000      8.669000    -12.489000
C         -15.005000      5.058000     -8.729000
C         -18.667000      5.381000    -11.298000
C         -15.667000      8.354000    -13.161000
C         -17.309000      7.544000     -6.565000
C         -17.520000      6.710000    -12.975000
C         -19.928000      7.886000     -9.091000
C         -13.489000      6.950000     -8.543000
C         -15.964000     10.406000    -12.180000
C         -19.063000      5.555000     -9.022000
C         -13.182000      8.022000    -10.631000
C         -19.265000      8.159000     -7.844000
C         -19.468000      7.602000    -11.787000
C         -15.407000     10.303000     -7.541000
C         -15.488000      9.113000     -6.800000
C         -19.609000      8.889000    -11.226000
C         -14.412000      6.064000     -7.945000
C         -17.046000      5.537000     -7.548000
C         -13.582000      8.186000     -7.931000
C         -15.920000      4.461000    -10.760000
C         -17.986000      9.067000    -12.754000
C         -18.375000      5.951000     -7.790000
C         -19.851000      9.050000     -9.854000
C         -13.257000      6.857000     -9.895000
C         -18.136000     10.854000    -11.062000
C         -13.811000      7.733000    -11.891000
C         -16.150000     11.308000    -10.005000
C         -18.457000      7.724000    -12.804000
C         -18.733000      9.830000    -11.830000
C         -16.250000      5.093000    -11.933000
C         -14.717000      4.857000    -10.089000
C         -14.394000     10.432000     -8.527000
C         -16.578000      9.400000    -12.936000
C         -18.807000      9.449000     -7.842000
C         -14.522000      8.119000     -6.907000
C         -16.738000     10.712000     -7.863000
C         -13.819000      5.830000    -10.685000
C         -13.336000      9.290000    -10.062000
O         -11.316000     10.157000     -6.717000
C         -10.759000      8.852000     -7.027000
H         -10.742000      8.671000     -8.109000
H         -11.431000      8.090000     -6.613000
H          -9.752000      8.672000     -6.630000
O          -9.480000     11.193000     -7.706000
C         -10.552000     11.265000     -7.178000
C         -11.343000     12.523000     -6.927000
H         -12.342000     12.424000     -7.370000
H         -10.760000     13.291000     -7.450000
C         -11.456000     12.940000     -5.482000
H         -11.855000     12.090000     -4.915000
H         -10.503000     13.255000     -5.038000
C         -12.517000     14.080000     -5.209000
H         -13.446000     13.689000     -5.643000
H         -12.615000     14.249000     -4.130000
C         -12.334000     15.488000     -5.911000
C         -11.081000     16.146000     -5.373000
C          -9.847000     15.914000     -5.935000
H          -9.855000     15.487000     -6.933000
C          -8.657000     16.032000     -5.147000
H          -7.710000     15.657000     -5.522000
C          -8.760000     16.659000     -3.914000
H          -7.852000     16.794000     -3.333000
C          -9.961000     17.082000     -3.354000
H          -9.957000     17.418000     -2.321000
C         -11.148000     16.841000     -4.125000
H         -12.135000     17.040000     -3.719000
C         -14.366000     20.303000     -7.529000
C         -12.611000     19.849000     -9.216000
C         -15.472000     18.912000    -12.570000
C         -17.612000     16.433000     -7.340000
C         -15.227000     15.448000    -12.287000
C         -13.077000     19.769000     -7.882000
C         -17.780000     15.223000     -9.782000
C         -15.506000     20.703000    -10.934000
C         -12.113000     15.856000     -9.659000
C         -16.917000     15.240000     -7.576000
C         -12.708000     15.704000     -7.347000
C         -13.016000     14.792000     -9.620000
C         -15.700000     14.034000     -9.103000
C         -17.381000     15.217000    -11.075000
C         -11.883000     17.937000     -8.263000
C         -16.959000     17.177000    -12.542000
C         -13.463000     16.396000     -6.275000
C         -15.000000     16.072000     -6.248000
C         -15.651000     16.704000    -12.797000
C         -18.220000     19.221000     -9.327000
C         -17.460000     19.300000    -11.359000
C         -16.821000     20.330000    -10.652000
C         -14.612000     21.032000     -9.901000
C         -15.672000     17.299000     -6.064000
C         -11.965000     16.498000     -8.389000
C         -13.342000     20.470000    -10.201000
C         -16.952000     14.615000     -8.775000
C         -11.857000     18.689000     -9.428000
C         -13.892000     14.507000    -10.696000
C         -17.371000     18.672000     -7.130000
C         -14.821000     19.938000    -11.901000
C         -13.495000     14.716000     -8.254000
C         -16.478000     20.628000     -8.271000
C         -15.206000     14.113000    -10.435000
C         -12.146000     16.684000    -10.797000
C         -18.469000     17.211000    -10.658000
C         -18.470000     16.386000     -9.541000
C         -13.046000     16.468000    -11.845000
C         -16.956000     17.454000     -6.586000
C         -15.611000     15.093000     -7.121000
C         -18.270000     18.430000     -8.164000
C         -13.491000     17.874000     -6.396000
C         -12.827000     18.716000    -11.613000
C         -14.826000     14.472000     -8.085000
C         -13.908000     15.321000    -11.842000
C         -16.510000     19.772000     -7.131000
C         -14.733000     17.811000    -12.805000
C         -15.137000     20.913000     -8.541000
C         -16.829000     18.560000    -12.376000
C         -12.028000     18.096000    -10.690000
C         -13.419000     17.708000    -12.356000
C         -12.639000     18.617000     -7.249000
C         -14.777000     18.346000     -6.160000
C         -18.342000     18.578000    -10.530000
C         -13.507000     19.861000    -11.432000
C         -16.080000     14.691000    -11.423000
C         -18.429000     17.023000     -8.307000
C         -17.853000     16.433000    -11.699000
C         -15.223000     19.601000     -6.668000
C         -17.297000     20.332000     -9.412000
$end

--------------------------------------------------------------

             Standard Nuclear Orientation (Angstroms)
    I     Atom           X                Y                Z
 ----------------------------------------------------------------
    1      O      13.7244355811    -1.1744218703    -2.3696255210
    2      C      15.1208235973    -0.8824936463    -2.7283572035
    3      H      15.4563451983    -1.5534342090    -3.5290619035
    4      H      15.8282570979    -1.0089140057    -1.9001895061
    5      H      15.1357096054     0.1310823411    -3.1497443467
    6      O      13.0038104323    -0.4971853528    -4.4988683663
    7      C      12.7239560319    -0.9632488457    -3.3546466505
    8      C      11.2584583151    -1.1578682190    -2.9225948694
    9      H      11.2712734162    -2.2352615067    -2.7131086482
   10      H      10.5537436227    -0.9644986066    -3.7412543806
   11      C      10.8394843729    -0.3846883603    -1.6372502689
   12      H      11.3735693822    -0.6845537665    -0.7275404575
   13      H      11.1291882152     0.6336273867    -1.9221760891
   14      C       9.3355977196    -0.5585138326    -1.3686117775
   15      H       8.7215215643    -0.3151549448    -2.2448189033
   16      H       9.1630757332    -1.6182342012    -1.1420132234
   17      C       8.7484186801     0.2265959023    -0.1679709154
   18      C       9.7252126663     0.9002469715     0.7295555442
   19      C      10.2168731788     2.1558856930     0.3237152536
   20      H      10.0418953468     2.4389942890    -0.7099390799
   21      C      11.1283792438     2.8586333725     1.1427313660
   22      H      11.4996751953     3.8252643304     0.8159915495
   23      C      11.5273188666     2.4171540502     2.3877711988
   24      H      12.2600682821     3.0340383916     2.9009972730
   25      C      10.9563725139     1.2279985660     2.8632945914
   26      H      11.3068088020     0.8420771465     3.8157771718
   27      C      10.0613126374     0.4934706270     2.0328094776
   28      H       9.7390316307    -0.4494819049     2.4646676433
   29      C       4.7199439023    -0.5800328308     3.5835165298
   30      C       4.7236856684     1.8520979854     3.2659465504
   31      C       0.8553664400     2.0214848099     0.9316313508
   32      C       4.2474457066    -2.9412727257    -0.8207010640
   33      C       2.3397114314     2.1678009261    -2.1786783670
   34      C       5.4107744938     0.6037104110     3.3911600084
   35      C       2.6729209724    -1.4577691812    -2.5089960901
   36      C       1.4184035734     0.6444382181     2.8947240309
   37      C       5.9660985964     2.8262446529    -0.4271105012
   38      C       4.8476386729    -2.1044439960    -1.7248554094
   39      C       7.3855774199     0.9148880813    -0.3578434406
   40      C       5.8843916163     2.1904307881    -1.6831430242
   41      C       4.7345737995    -0.1866875364    -2.8322128477
   42      C       1.9773442117    -0.2313056963    -2.5310480763
   43      C       6.4241724296     1.9140683670     1.7804720650
   44      C       0.6059205121     0.9087022104    -1.0033160943
   45      C       7.4385679216    -0.4303722729     0.3939408277
   46      C       6.6477988994    -1.5788061882    -0.1957886829
   47      C       1.2228067529     2.1763457516    -1.2979026151
   48      C       1.4793854730    -2.3662774336     1.1948588973
   49      C       0.3627495435    -0.4350216623     1.0265605113
   50      C       0.9258104850    -0.5457753014     2.2831638726
   51      C       2.6364110631     0.5564944795     3.5802637115
   52      C       6.0176732299    -2.3101372814     0.7912829826
   53      C       6.7980622285     2.0919697811     0.4352205996
   54      C       3.2786073834     1.7657882108     3.4044867003
   55      C       4.0733438806    -1.4044193016    -2.6102999317
   56      C       5.3262099259     2.6250178664     2.2909386650
   57      C       4.5667178759     2.2072762270    -2.3475481302
   58      C       3.7938363314    -3.0992872812     1.3780603908
   59      C       1.3139153996     1.8436759649     2.2233038582
   60      C       6.5911731149     0.9790995152    -1.5861612708
   61      C       2.8095168078    -1.7474828336     3.0534459615
   62      C       4.0574720222     0.9917056333    -2.9238846572
   63      C       4.8892621197     3.5138837298     0.0502454482
   64      C       0.9858985109    -1.5360589121    -0.9877670040
   65      C       2.1092897641    -2.2266108525    -1.4703352477
   66      C       3.6488109852     3.5638780137    -0.6203904847
   67      C       4.8474410930    -3.0079472235     0.4420566513
   68      C       6.0034077717    -1.4454405443    -1.4541521756
   69      C       2.5872182378    -3.1289859503     0.7042059814
   70      C       6.9520670463    -0.4874378502     1.8511273011
   71      C       3.1570561961     3.3815285123     1.5534362993
   72      C       5.9577825083    -0.2164396920    -2.1496205360
   73      C       3.4707891552     2.9086311688    -1.8475126466
   74      C       3.9075610725    -2.4334004879     2.5755738403
   75      C       1.3668527490     2.8374972574    -0.0521584851
   76      C       3.3263293934    -0.5524392123     3.6629847170
   77      C       0.3571799297     0.8114729839     0.3264540363
   78      C       4.5762163525     3.4442933382     1.4532613159
   79      C       2.5544903972     3.5238614096     0.2843382714
   80      C       6.4985305216     0.6487565216     2.4737186359
   81      C       6.2218224339    -1.7057627644     2.0426820179
   82      C       0.6636811071    -1.6251601733     0.3918136968
   83      C       2.4877817396     2.5391612827     2.5377970829
   84      C       2.6957232672     0.9565313229    -2.7887140390
   85      C       2.8286505618    -3.1031661973    -0.6660891596
   86      C       0.9505288445    -0.2559637426    -1.6222993858
   87      C       5.0905194135    -1.7595295148     2.9513137435
   88      C       1.5902238242    -1.6974662417     2.3707132460
   89      O       0.0326179994    -5.1042643211     0.9604987444
   90      C       1.1688917520    -5.6240117056     1.7008490772
   91      H       1.4057658489    -4.9920218762     2.5658655614
   92      H       2.0501362942    -5.5714153473     1.0494922779
   93      H       1.0613133765    -6.6594737089     2.0476967857
   94      O      -1.3745588746    -5.5839839656     2.7527139401
   95      C      -1.2030797489    -5.1134123709     1.6653734765
   96      C      -2.2306852937    -4.3950397280     0.8291835519
   97      H      -1.8530929063    -3.4018217480     0.5553349931
   98      H      -3.0883142130    -4.3115169467     1.5079608216
   99      C      -2.6931319630    -5.1314138416    -0.4031229209
  100      H      -1.8060147729    -5.3975560219    -0.9908145331
  101      H      -3.2674851388    -6.0406539927    -0.1841006002
  102      C      -3.5393564971    -4.2560400001    -1.4118224180
  103      H      -2.8984027033    -3.3886718424    -1.6146245706
  104      H      -3.7438059914    -4.8293347624    -2.3239296046
  105      C      -4.9015258216    -3.6140863694    -0.9207549404
  106      C      -5.8891640570    -4.7231867680    -0.6259939833
  107      C      -5.9454785397    -5.3289898578     0.6078031213
  108      H      -5.4700130647    -4.7897492895     1.4211598644
  109      C      -6.4113434769    -6.6773691390     0.7335456131
  110      H      -6.2679654874    -7.2243050357     1.6600243646
  111      C      -7.0659437523    -7.2371391478    -0.3537367867
  112      H      -7.4635517930    -8.2425532863    -0.2474341241
  113      C      -7.2022317781    -6.6094666490    -1.5875855652
  114      H      -7.5910179602    -7.1893724417    -2.4197848059
  115      C      -6.6194870053    -5.3029946749    -1.7101845488
  116      H      -6.5847352144    -4.7876657642    -2.6650847670
  117      C      -8.9300136253     0.0402254671    -1.5110633487
  118      C      -8.8357998366    -0.2868268906     0.9417453510
  119      C      -6.9955807902     3.7281513183     1.8396038270
  120      C      -4.3792742874     1.3995868015    -3.2408162909
  121      C      -3.7328409940     2.5541111806     2.1795579079
  122      C      -8.7217926272    -0.8097321893    -0.3684776853
  123      C      -3.0186129824     2.7894646750    -1.3244321149
  124      C      -8.8157875282     3.1352506417     0.3494195368
  125      C      -5.0824710425    -1.3103850969     2.0611887670
  126      C      -3.3908275570     0.7576137552    -2.4839717435
  127      C      -4.9262373927    -2.3762747136    -0.0746818685
  128      C      -3.8278209471    -0.9206464113     1.5889781200
  129      C      -2.4435749516     0.5481753558    -0.4040433652
  130      C      -3.0350654927     3.3154334063    -0.0777676819
  131      C      -7.2350935993    -1.8770282286     0.8875582079
  132      C      -4.9438030443     4.3969712699     1.0878951376
  133      C      -5.4673533237    -2.3387147360    -1.4544846796
  134      C      -4.7643260561    -1.3008777035    -2.4014381922
  135      C      -4.8053189718     3.4851391192     2.1598103817
  136      C      -6.7922986350     3.7638944401    -2.4173237969
  137      C      -6.9373982865     4.5134097765    -0.3850743408
  138      C      -8.1377865901     3.8362797172    -0.6489546232
  139      C      -9.4248293954     1.8987239232     0.0762242252
  140      C      -5.7882497387    -0.6348226327    -3.1077808391
  141      C      -5.8178436302    -2.0748418536     1.1010840726
  142      C      -9.1880030137     1.0225155650     1.1693464407
  143      C      -2.7050491105     1.3978229072    -1.5096560020
  144      C      -7.8957221435    -0.9797039115     1.7132603313
  145      C      -3.2631839125     0.3402772622     1.9014417321
  146      C      -6.6142185907     1.6150509412    -3.5126639792
  147      C      -8.1928327468     3.0653789163     1.6129796985
  148      C      -3.7163259690    -1.4533636294     0.2454922677
  149      C      -8.6592848641     2.1420270488    -2.3021822076
  150      C      -2.5638821136     1.0489697333     0.9223171356
  151      C      -5.8030486225    -0.3689251332     2.8202263735
  152      C      -4.7073403088     4.3199323005    -1.3139504802
  153      C      -3.9796936472     3.4175332247    -2.0784903705
  154      C      -5.3005947546     0.9080967348     3.0880234220
  155      C      -5.5782049362     0.6779874517    -3.5291783511
  156      C      -3.6100825386    -0.5269638654    -1.9981141618
  157      C      -6.0877918165     2.8763373120    -3.2519868948
  158      C      -6.8789869844    -1.8939468417    -1.5513398710
  159      C      -7.5399654227     1.1278969926     2.7843857136
  160      C      -3.1517740083    -0.6384932232    -0.6909506321
  161      C      -3.9740960756     1.2710161890     2.6789357490
  162      C      -7.8952318705     1.2405524546    -3.1002590078
  163      C      -6.1071953206     3.0747825181     2.6125381503
  164      C      -9.2597387579     1.3935641812    -1.2864733628
  165      C      -6.3217185608     4.5209015907     0.8802052125
  166      C      -7.2022583345    -0.1918855323     2.6470612453
  167      C      -6.3705802505     1.7984673055     3.1028990956
  168      C      -7.7608074224    -1.8047241679    -0.4468064720
  169      C      -7.0209489348    -0.9864757099    -2.5947089091
  170      C      -6.0667138816     4.4664391924    -1.4923915633
  171      C      -8.4825369217     1.7824743509     2.0849048695
  172      C      -2.8379325680     2.4553497765     1.0675601138
  173      C      -4.6807348578     2.7535046203    -3.0773963889
  174      C      -4.0496897096     4.3447722546    -0.0351621216
  175      C      -8.0869734696    -0.0407622924    -2.6296777947
  176      C      -8.0945740695     3.3996907598    -1.9026303230
 ----------------------------------------------------------------

   10   -5804.2102840552      2.22E-06 Convergence criterion met
 Total energy in the final basis set = -5804.2102840552

                    Orbital Energies (a.u.)
 --------------------------------------------------------------

 Alpha MOs
 -- Occupied --
-19.194 -19.187 -19.148 -19.137 -10.327 -10.318 -10.247 -10.244
-10.243 -10.242 -10.242 -10.242 -10.240 -10.236 -10.232 -10.231
-10.231 -10.230 -10.230 -10.229 -10.229 -10.228 -10.228 -10.227
-10.224 -10.224 -10.223 -10.223 -10.223 -10.222 -10.222 -10.222
-10.221 -10.221 -10.221 -10.221 -10.220 -10.220 -10.219 -10.219
-10.219 -10.219 -10.219 -10.219 -10.218 -10.218 -10.218 -10.218
-10.218 -10.218 -10.217 -10.217 -10.217 -10.217 -10.217 -10.216
-10.216 -10.216 -10.216 -10.216 -10.216 -10.216 -10.216 -10.215
-10.215 -10.215 -10.215 -10.215 -10.215 -10.215 -10.215 -10.214
-10.214 -10.214 -10.214 -10.214 -10.214 -10.214 -10.214 -10.214
-10.214 -10.214 -10.213 -10.213 -10.213 -10.213 -10.213 -10.213
-10.213 -10.212 -10.212 -10.212 -10.212 -10.212 -10.211 -10.211
-10.211 -10.211 -10.211 -10.211 -10.211 -10.211 -10.211 -10.211
-10.211 -10.211 -10.210 -10.210 -10.210 -10.210 -10.210 -10.210
-10.209 -10.209 -10.209 -10.209 -10.209 -10.209 -10.209 -10.209
-10.208 -10.208 -10.208 -10.207 -10.207 -10.206 -10.206 -10.206
-10.205 -10.205 -10.205 -10.205 -10.204 -10.204 -10.204 -10.203
-10.203 -10.202 -10.202 -10.201 -10.201 -10.201 -10.200 -10.200
-10.199 -10.198 -10.198 -10.194  -1.085  -1.066  -1.015  -0.988
 -0.987  -0.984  -0.969  -0.967  -0.964  -0.964  -0.963  -0.959
 -0.937  -0.936  -0.929  -0.927  -0.926  -0.926  -0.925  -0.924
 -0.923  -0.921  -0.900  -0.900  -0.891  -0.889  -0.885  -0.884
 -0.875  -0.874  -0.853  -0.852  -0.846  -0.845  -0.845  -0.839
 -0.838  -0.835  -0.823  -0.817  -0.809  -0.807  -0.802  -0.800
 -0.799  -0.797  -0.796  -0.794  -0.794  -0.789  -0.785  -0.784
 -0.775  -0.772  -0.772  -0.769  -0.767  -0.766  -0.765  -0.762
 -0.747  -0.745  -0.742  -0.738  -0.731  -0.730  -0.722  -0.718
 -0.717  -0.716  -0.714  -0.713  -0.712  -0.712  -0.710  -0.709
 -0.708  -0.707  -0.705  -0.702  -0.702  -0.696  -0.675  -0.672
 -0.663  -0.661  -0.657  -0.655  -0.650  -0.647  -0.634  -0.631
 -0.628  -0.627  -0.625  -0.625  -0.624  -0.623  -0.621  -0.620
 -0.618  -0.616  -0.615  -0.615  -0.614  -0.612  -0.611  -0.609
 -0.607  -0.604  -0.603  -0.603  -0.566  -0.564  -0.563  -0.562
 -0.562  -0.559  -0.559  -0.559  -0.558  -0.555  -0.553  -0.553
 -0.537  -0.537  -0.536  -0.532  -0.531  -0.529  -0.527  -0.524
 -0.523  -0.522  -0.520  -0.519  -0.518  -0.518  -0.515  -0.514
 -0.507  -0.503  -0.502  -0.496  -0.494  -0.492  -0.488  -0.487
 -0.485  -0.485  -0.484  -0.481  -0.478  -0.478  -0.475  -0.474
 -0.473  -0.471  -0.470  -0.469  -0.468  -0.468  -0.466  -0.466
 -0.466  -0.465  -0.464  -0.464  -0.462  -0.460  -0.460  -0.459
 -0.458  -0.456  -0.453  -0.452  -0.450  -0.447  -0.447  -0.445
 -0.444  -0.442  -0.442  -0.440  -0.438  -0.437  -0.434  -0.433
 -0.432  -0.431  -0.429  -0.428  -0.427  -0.427  -0.426  -0.426
 -0.425  -0.424  -0.422  -0.421  -0.420  -0.420  -0.419  -0.418
 -0.418  -0.418  -0.417  -0.416  -0.415  -0.414  -0.413  -0.413
 -0.412  -0.411  -0.409  -0.407  -0.406  -0.403  -0.401  -0.399
 -0.396  -0.392  -0.392  -0.390  -0.390  -0.388  -0.386  -0.386
 -0.383  -0.378  -0.375  -0.374  -0.372  -0.367  -0.366  -0.365
 -0.364  -0.363  -0.363  -0.363  -0.362  -0.362  -0.359  -0.359
 -0.358  -0.358  -0.356  -0.356  -0.355  -0.353  -0.353  -0.352
 -0.352  -0.351  -0.350  -0.348  -0.348  -0.347  -0.345  -0.345
 -0.344  -0.342  -0.341  -0.338  -0.337  -0.336  -0.336  -0.336
 -0.335  -0.333  -0.331  -0.330  -0.329  -0.327  -0.326  -0.323
 -0.314  -0.309  -0.299  -0.294  -0.289  -0.285  -0.277  -0.273
 -0.272  -0.270  -0.270  -0.267  -0.267  -0.266  -0.265  -0.264
 -0.263  -0.262  -0.261  -0.259  -0.257  -0.256  -0.254  -0.253
 -0.252  -0.247  -0.246  -0.241  -0.223  -0.220  -0.215  -0.213
 -0.210  -0.209  -0.208  -0.205  -0.199  -0.197

          Ground-State Mulliken Net Atomic Charges

     Atom                 Charge (a.u.)
  ----------------------------------------
      1 O                    -0.490183
      2 C                    -0.079356
      3 H                     0.129118
      4 H                     0.126913
      5 H                     0.135245
      6 O                    -0.482124
      7 C                     0.580468
      8 C                    -0.240074
      9 H                     0.127087
     10 H                     0.141155
     11 C                    -0.190648
     12 H                     0.131027
     13 H                     0.115365
     14 C                    -0.183527
     15 H                     0.111375
     16 H                     0.118767
     17 C                     0.005496
     18 C                     0.082669
     19 C                    -0.099776
     20 H                     0.091403
     21 C                    -0.089296
     22 H                     0.086762
     23 C                    -0.069037
     24 H                     0.094095
     25 C                    -0.099048
     26 H                     0.093730
     27 C                    -0.126008
     28 H                     0.090986
     29 C                     0.026624
     30 C                    -0.008388
     31 C                     0.019506
     32 C                    -0.012802
     33 C                    -0.016820
     34 C                    -0.014399
     35 C                    -0.028752
     36 C                    -0.002686
     37 C                     0.022534
     38 C                     0.030477
     39 C                    -0.065333
     40 C                    -0.025147
     41 C                    -0.011056
     42 C                     0.004734
     43 C                     0.008886
     44 C                     0.010711
     45 C                    -0.095257
     46 C                     0.013755
     47 C                    -0.036405
     48 C                     0.045748
     49 C                     0.037753
     50 C                    -0.016182
     51 C                     0.035364
     52 C                     0.028657
     53 C                     0.033306
     54 C                    -0.026627
     55 C                    -0.010042
     56 C                     0.020303
     57 C                    -0.018491
     58 C                     0.002441
     59 C                     0.006727
     60 C                     0.034175
     61 C                    -0.019953
     62 C                     0.000722
     63 C                     0.012011
     64 C                    -0.029461
     65 C                     0.035085
     66 C                    -0.006082
     67 C                    -0.008347
     68 C                     0.008583
     69 C                    -0.011284
     70 C                     0.017558
     71 C                     0.007564
     72 C                    -0.021169
     73 C                     0.017325
     74 C                     0.013810
     75 C                     0.016813
     76 C                    -0.004174
     77 C                    -0.006867
     78 C                    -0.023550
     79 C                    -0.011813
     80 C                     0.015591
     81 C                    -0.026725
     82 C                    -0.044971
     83 C                    -0.028387
     84 C                     0.026306
     85 C                    -0.030281
     86 C                     0.016199
     87 C                    -0.026364
     88 C                     0.012438
     89 O                    -0.490310
     90 C                    -0.080905
     91 H                     0.121992
     92 H                     0.119882
     93 H                     0.122028
     94 O                    -0.443784
     95 C                     0.594728
     96 C                    -0.244653
     97 H                     0.132607
     98 H                     0.127186
     99 C                    -0.193820
    100 H                     0.124292
    101 H                     0.122098
    102 C                    -0.181336
    103 H                     0.107113
    104 H                     0.114282
    105 C                     0.000530
    106 C                     0.103081
    107 C                    -0.126771
    108 H                     0.091373
    109 C                    -0.086507
    110 H                     0.100679
    111 C                    -0.083607
    112 H                     0.084761
    113 C                    -0.083096
    114 H                     0.098644
    115 C                    -0.125645
    116 H                     0.087705
    117 C                    -0.017182
    118 C                     0.042055
    119 C                     0.013152
    120 C                    -0.003138
    121 C                    -0.016259
    122 C                    -0.007072
    123 C                     0.035309
    124 C                    -0.025085
    125 C                    -0.003257
    126 C                     0.006740
    127 C                    -0.075765
    128 C                    -0.001197
    129 C                    -0.025007
    130 C                    -0.010342
    131 C                    -0.009988
    132 C                     0.002816
    133 C                    -0.096674
    134 C                    -0.005402
    135 C                     0.000693
    136 C                    -0.026398
    137 C                    -0.028710
    138 C                     0.065836
    139 C                    -0.020728
    140 C                    -0.000491
    141 C                     0.026385
    142 C                    -0.008849
    143 C                     0.004041
    144 C                    -0.025675
    145 C                     0.018045
    146 C                     0.021694
    147 C                     0.010315
    148 C                     0.006143
    149 C                    -0.026030
    150 C                    -0.008509
    151 C                    -0.008277
    152 C                     0.022071
    153 C                     0.003842
    154 C                     0.003249
    155 C                     0.000743
    156 C                    -0.007972
    157 C                    -0.011442
    158 C                     0.069269
    159 C                     0.026635
    160 C                     0.030598
    161 C                    -0.004097
    162 C                     0.000532
    163 C                     0.002197
    164 C                     0.004573
    165 C                    -0.008057
    166 C                    -0.003393
    167 C                    -0.010289
    168 C                    -0.011350
    169 C                     0.019783
    170 C                     0.027108
    171 C                     0.003001
    172 C                     0.000438
    173 C                    -0.020606
    174 C                    -0.047238
    175 C                    -0.004588
    176 C                    -0.007218
  ----------------------------------------
  Sum of atomic charges =     0.000000

                    Cartesian Multipole Moments
 -----------------------------------------------------------------
    Charge (ESU x 10^10)
                 0.0000
    Dipole Moment (Debye)
         X       3.7061      Y      -1.9686      Z       0.1806
       Tot       4.2004
    Quadrupole Moments (Debye-Ang)
        XX    -764.5711     XY      10.2074     YY    -793.8588
        XZ      33.6171     YZ      11.8853     ZZ    -825.5873

 Total job time:  923.90s(wall), 7841.79s(cpu)
        *  Thank you very much for using Q-Chem.  Have a nice day.  *
