 Q-Chem 4.4, Q-Chem, Inc., Pleasanton, CA (2016)
 Q-Chem 4.4.2 for Intel X86 Linux

User input:
--------------------------------------------------------------
$comment
SP
$end

$rem
MEM_STATIC 5000
MEM_TOTAL 20000
JOBTYPE SP
EXCHANGE B3LYP
BASIS 6-31g(d,p)
$end

$molecule
0 1
O         -21.300000    -20.861000      6.005000
C         -21.736000    -22.240000      6.108000
H         -22.563000    -22.360000      5.398000
H         -21.917000    -22.448000      7.170000
H         -20.971000    -22.856000      5.618000
O         -19.522000    -21.093000      7.441000
C         -20.135000    -20.411000      6.626000
C         -19.691000    -19.016000      6.116000
H         -19.440000    -19.289000      5.084000
H         -18.736000    -18.692000      6.547000
C         -20.784000    -17.844000      6.302000
H         -21.791000    -18.000000      5.896000
H         -20.802000    -17.658000      7.383000
C         -20.057000    -16.521000      5.886000
H         -19.135000    -16.442000      6.474000
H         -19.730000    -16.688000      4.852000
C         -20.997000    -15.294000      6.030000
C         -21.414000    -15.095000      7.431000
C         -20.584000    -14.366000      8.235000
H         -19.608000    -14.113000      7.830000
C         -20.965000    -14.002000      9.527000
H         -20.324000    -13.320000     10.079000
C         -22.238000    -14.237000     10.017000
H         -22.478000    -13.927000     11.030000
C         -23.066000    -15.028000      9.226000
H         -24.082000    -15.219000      9.559000
C         -22.645000    -15.441000      7.958000
H         -23.371000    -15.973000      7.350000
C         -25.510000    -12.976000      3.936000
C         -24.268000    -11.028000      4.684000
C         -23.085000     -9.728000      0.544000
C         -22.805000    -15.994000      0.921000
C         -19.923000    -11.130000      0.550000
C         -24.617000    -12.387000      4.832000
C         -21.030000    -14.449000     -0.622000
C         -25.184000    -10.511000      1.312000
C         -20.288000    -11.876000      4.542000
C         -21.464000    -15.926000      1.278000
C         -20.875000    -14.109000      5.080000
C         -19.504000    -12.749000      3.717000
C         -19.669000    -14.477000      1.482000
C         -20.637000    -13.109000     -0.702000
C         -22.496000    -12.215000      5.549000
C         -21.890000    -10.961000     -0.883000
C         -22.026000    -15.053000      4.944000
C         -22.152000    -15.889000      3.655000
C         -20.984000    -10.373000      0.017000
C         -24.953000    -13.498000     -0.351000
C         -24.272000    -11.400000     -0.723000
C         -25.253000    -11.376000      0.257000
C         -25.548000    -10.904000      2.576000
C         -23.490000    -15.911000      3.241000
C         -21.164000    -12.677000      5.337000
C         -24.713000    -10.318000      3.530000
C         -20.533000    -15.119000      0.530000
C         -22.924000    -10.958000      5.095000
C         -19.210000    -12.313000      2.381000
C         -24.941000    -15.252000      1.367000
C         -24.086000     -9.616000      1.527000
C         -19.906000    -14.066000      3.919000
C         -26.121000    -13.194000      1.750000
C         -19.275000    -13.245000      1.302000
C         -20.630000    -10.609000      4.092000
C         -22.805000    -13.188000     -1.401000
C         -22.376000    -14.469000     -0.928000
C         -20.351000    -10.155000      2.791000
C         -23.809000    -15.998000      1.891000
C         -21.110000    -15.817000      2.650000
C         -24.518000    -14.771000      0.103000
C         -23.360000    -14.447000      5.021000
C         -22.433000     -9.472000      3.231000
C         -19.970000    -14.956000      2.793000
C         -19.649000    -11.046000      1.904000
C         -25.677000    -14.416000      2.194000
C         -21.696000     -9.562000      0.864000
C         -26.025000    -12.282000      2.805000
C         -23.171000    -10.491000     -0.677000
C         -21.952000    -10.156000      4.394000
C         -21.416000     -9.416000      2.231000
C         -23.534000    -13.094000      5.356000
C         -24.197000    -15.020000      4.043000
C         -24.059000    -12.706000     -1.069000
C         -23.818000     -9.500000      2.876000
C         -19.785000    -12.459000      0.243000
C         -23.244000    -15.249000     -0.164000
C         -21.717000    -12.335000     -1.230000
C         -25.303000    -14.285000      3.545000
C         -25.726000    -12.670000      0.431000
O         -21.758000    -24.408000     -9.073000
C         -23.099000    -24.834000     -8.873000
H         -23.176000    -25.732000     -8.247000
H         -23.563000    -25.087000     -9.834000
H         -23.741000    -24.028000     -8.496000
O         -21.535000    -23.812000     -6.842000
C         -21.092000    -23.983000     -7.965000
C         -19.662000    -23.591000     -8.312000
H         -19.632000    -23.206000     -9.339000
H         -19.111000    -24.534000     -8.417000
C         -18.984000    -22.548000     -7.315000
H         -18.257000    -21.924000     -7.849000
H         -19.754000    -21.868000     -6.930000
C         -18.173000    -23.154000     -6.078000
H         -18.734000    -23.973000     -5.611000
H         -17.337000    -23.758000     -6.454000
C         -17.790000    -22.018000     -5.060000
C         -16.884000    -20.990000     -5.575000
C         -17.237000    -19.703000     -6.074000
H         -18.286000    -19.426000     -6.117000
C         -16.278000    -18.812000     -6.531000
H         -16.537000    -17.814000     -6.872000
C         -14.892000    -19.113000     -6.456000
H         -14.088000    -18.438000     -6.734000
C         -14.485000    -20.310000     -5.867000
H         -13.433000    -20.578000     -5.820000
C         -15.517000    -21.302000     -5.498000
H         -15.301000    -22.280000     -5.078000
C         -16.192000    -21.021000      0.129000
C         -17.338000    -19.052000     -0.472000
C         -21.039000    -19.937000      2.197000
C         -19.171000    -25.218000     -0.809000
C         -23.061000    -21.084000     -0.503000
C         -16.467000    -20.039000     -0.856000
C         -21.793000    -24.428000     -0.366000
C         -18.685000    -20.211000      2.635000
C         -20.290000    -19.798000     -3.217000
C         -20.024000    -24.845000     -1.898000
C         -18.837000    -21.499000     -4.034000
C         -21.089000    -20.865000     -3.487000
C         -21.647000    -23.521000     -2.588000
C         -22.655000    -23.411000      0.034000
C         -17.970000    -19.685000     -2.624000
C         -22.356000    -21.721000      1.766000
C         -17.766000    -22.368000     -3.584000
C         -18.183000    -23.633000     -2.966000
C         -22.714000    -20.723000      0.854000
C         -18.967000    -23.710000      2.388000
C         -20.316000    -22.041000      2.954000
C         -18.951000    -21.524000      3.050000
C         -17.527000    -19.950000      1.852000
C         -17.372000    -23.866000     -1.830000
C         -18.952000    -20.146000     -3.485000
C         -17.834000    -18.983000      0.891000
C         -21.316000    -24.491000     -1.660000
C         -18.258000    -18.862000     -1.540000
C         -22.232000    -21.141000     -2.620000
C         -17.493000    -24.354000      0.558000
C         -19.728000    -19.413000      2.213000
C         -20.276000    -21.939000     -3.876000
C         -17.025000    -22.308000      1.829000
C         -22.520000    -22.435000     -2.251000
C         -20.628000    -18.956000     -2.117000
C         -21.326000    -23.918000      1.801000
C         -21.020000    -24.817000      0.733000
C         -21.735000    -19.182000     -1.332000
C         -17.844000    -24.681000     -0.765000
C         -19.515000    -24.084000     -2.970000
C         -18.681000    -24.578000      1.326000
C         -16.818000    -21.811000     -2.581000
C         -20.076000    -18.374000      0.068000
C         -20.543000    -23.257000     -3.418000
C         -22.459000    -20.350000     -1.513000
C         -16.740000    -23.181000      0.828000
C         -21.871000    -19.605000      1.086000
C         -16.697000    -20.971000      1.418000
C         -21.384000    -21.224000      2.600000
C         -19.587000    -18.513000     -1.272000
C         -21.434000    -18.801000      0.079000
C         -16.837000    -20.444000     -2.183000
C         -16.634000    -22.712000     -1.575000
C         -20.287000    -23.390000      2.624000
C         -19.184000    -18.676000      1.095000
C         -22.955000    -22.427000     -0.930000
C         -19.655000    -25.151000      0.505000
C         -22.371000    -23.043000      1.364000
C         -16.262000    -22.384000     -0.254000
C         -18.147000    -22.590000      2.638000
$end

--------------------------------------------------------------

             Standard Nuclear Orientation (Angstroms)
    I     Atom           X                Y                Z
 ----------------------------------------------------------------
    1      O       0.5559196340    -6.0262233105     1.0714040925
    2      C      -0.3681022171    -6.7909478984     1.8860978529
    3      H      -0.6197141073    -6.1611881869     2.7477956900
    4      H       0.0876842830    -7.7729365944     2.0644959109
    5      H      -1.3323047866    -6.7933118275     1.3616087521
    6      O       0.6576989481    -7.5630474723    -0.6330067931
    7      C       0.9300245703    -6.4460158382    -0.2049915086
    8      C       1.6454009268    -5.3314952165    -1.0108087660
    9      H       0.8033220565    -4.6370662193    -1.1167594337
   10      H       1.8742624471    -5.6336919022    -2.0399159362
   11      C       2.9787194432    -4.7415340003    -0.3201304781
   12      H       2.9114298584    -4.3655349346     0.7081291264
   13      H       3.7140746258    -5.5502217214    -0.4137142649
   14      C       3.6098728529    -3.7769980266    -1.3799558075
   15      H       3.7370980522    -4.3368672500    -2.3139949937
   16      H       2.8303767120    -3.0336997578    -1.5894013846
   17      C       4.9225108796    -3.1404288081    -0.8492713054
   18      C       5.9498070492    -4.1649896155    -0.5823841907
   19      C       6.7365080900    -4.5523060237    -1.6301649274
   20      H       6.4527850328    -4.1914235983    -2.6149872982
   21      C       7.8267232447    -5.4021869780    -1.4402852813
   22      H       8.4919906657    -5.5804586939    -2.2807300766
   23      C       8.2518790826    -5.7905272090    -0.1816001029
   24      H       9.1101968808    -6.4507025699    -0.0959960718
   25      C       7.4222272719    -5.4471411772     0.8817483377
   26      H       7.7275276941    -5.7100611313     1.8903566611
   27      C       6.2949416521    -4.6479865084     0.6667763704
   28      H       5.7423116489    -4.3334728012     1.5473700381
   29      C       6.8773352417     0.3699511326     2.8898493646
   30      C       8.4924457735     0.6260668645     1.0946906803
   31      C       6.9747340570     4.6571896990    -0.1997933244
   32      C       2.1080472725     0.9961811912     1.3479991189
   33      C       4.9951192039     3.5437994516    -2.8085039620
   34      C       7.5847794574    -0.1760406262     1.8181210030
   35      C       2.0222038506     2.9040223630    -0.7187064649
   36      C       7.3390754329     3.8414384401     1.9934962701
   37      C       6.6506329870    -0.1651364791    -2.4495145802
   38      C       1.9873840603     0.5760727443     0.0291726398
   39      C       5.3217235798    -1.7294505020    -1.2632500965
   40      C       5.2960109623    -0.0238055450    -2.8994420602
   41      C       2.7604791957     0.9617021697    -2.1195143681
   42      C       2.9393080393     3.6337908942    -1.4821243045
   43      C       7.5273401441    -0.9345676679    -0.2946145347
   44      C       4.8964963581     5.0667683342    -0.9053543838
   45      C       4.8113554435    -1.9802167269     0.1191657837
   46      C       3.4854427039    -1.3233865456     0.5513954910
   47      C       5.6017390671     4.5153736804    -1.9894100361
   48      C       3.9999653483     3.6345517985     2.7341991525
   49      C       5.2849707921     4.9769997751     1.4890712717
   50      C       6.1004785083     4.2795352456     2.3676083484
   51      C       7.8063386098     2.6130724899     2.3902622161
   52      C       3.6112403606    -0.8313821724     1.8568573427
   53      C       6.6803528475    -1.1552174414    -1.4200203268
   54      C       8.5585089511     2.0234592607     1.3717667485
   55      C       1.9727015940     1.5234085862    -1.0570378499
   56      C       8.4016386659     0.1612550278    -0.2303983830
   57      C       4.8433980332     1.2959677967    -3.2382161188
   58      C       3.5242933383     1.2614439760     3.1468484000
   59      C       7.8674559566     4.0060321741     0.6719150486
   60      C       4.4654059452    -0.8429702408    -2.1405207818
   61      C       5.6935429182     2.1640755910     3.6508974332
   62      C       3.5373908109     1.7183749026    -2.8470545509
   63      C       7.5115102125     0.9226140394    -2.4705434212
   64      C       3.0934163819     4.4317903179     0.6473154196
   65      C       2.2099527834     3.3071897889     0.5881823463
   66      C       7.0961977239     2.2242093968    -2.8020898922
   67      C       2.9021539397     0.2950014868     2.2572150577
   68      C       2.7162682271    -0.5612524827    -0.4121891158
   69      C       3.1110007980     2.5294600920     2.6679847393
   70      C       5.7009277915    -1.5697046266     1.2113479357
   71      C       8.4474144107     2.4570630974    -1.0372087009
   72      C       3.1672791675    -0.3589582980    -1.7601639652
   73      C       5.7162890403     2.4176954817    -3.1652278272
   74      C       4.8373680563     1.0932999605     3.5616777324
   75      C       6.8990937459     4.3144098226    -1.5912161572
   76      C       6.9622001426     1.7476797941     3.2372449375
   77      C       5.7326647115     5.2907655223     0.1693291717
   78      C       8.3970609868     1.0616592963    -1.3567376739
   79      C       7.6750274633     3.2094417232    -1.9724999961
   80      C       7.0071320145    -1.1161787992     0.9638507604
   81      C       4.9467379812    -0.9528058117     2.2291964422
   82      C       3.9996171767     4.5530311102     1.6861439856
   83      C       8.6130747585     2.9017414256     0.3118101402
   84      C       3.7329755853     3.0835933815    -2.5351217041
   85      C       2.2375201916     2.3533469401     1.6055042510
   86      C       3.5673689527     4.6123522055    -0.6501283616
   87      C       5.5669972620    -0.0170626462     3.0958729406
   88      C       5.2925582912     3.5043224544     3.1890406653
   89      O     -10.2659477899     4.8324593357     3.3326545536
   90      C     -10.1305647682     4.5949595772     4.7272951174
   91      H     -10.4879026281     3.6028954474     5.0311493856
   92      H     -10.7227217484     5.3233322785     5.2944364744
   93      H      -9.1094941871     4.7784697914     5.0846015259
   94      O      -8.6504861998     3.2453409158     2.8290227712
   95      C      -9.5128612649     4.0478914912     2.5146331705
   96      C      -9.7788750718     4.3807022204     1.0526322563
   97      H     -10.0334289166     5.4443436909     0.9647507318
   98      H     -10.7377057348     3.9066242307     0.8081556331
   99      C      -8.5964020188     4.0146846151     0.0479777925
  100      H      -8.5858018989     4.7090488332    -0.8010257235
  101      H      -7.6363836863     4.1397526283     0.5639698401
  102      C      -8.6350893990     2.5599254050    -0.6133125576
  103      H      -8.8826068533     1.7995635221     0.1377905757
  104      H      -9.5477684283     2.4597838273    -1.2150406139
  105      C      -7.2864367348     2.2596746352    -1.3646410255
  106      C      -6.9926797169     3.1307654073    -2.5038305099
  107      C      -6.1392447463     4.2715705908    -2.5176610624
  108      H      -5.6544916713     4.5760123397    -1.5949971594
  109      C      -5.9379282653     5.0153260101    -3.6703581391
  110      H      -5.2554212637     5.8596074862    -3.6975423574
  111      C      -6.5168313146     4.6321311389    -4.9094121938
  112      H      -6.3487936384     5.1292150137    -5.8601992156
  113      C      -7.2648602501     3.4569278257    -4.9781790775
  114      H      -7.7411086109     3.1535299325    -5.9065508873
  115      C      -7.5740693516     2.7422831611    -3.7216275525
  116      H      -8.1863188273     1.8471320593    -3.6633601999
  117      C      -4.1347293344    -1.7628528374    -3.4525460028
  118      C      -2.5756775848    -0.0837034472    -2.9036444020
  119      C      -0.8301823149    -2.3658702566     0.7500041740
  120      C      -7.1687555289    -2.8458918665     0.6694444766
  121      C      -2.6447958848    -0.4664909483     3.1569999853
  122      C      -3.8074418070    -0.3835906860    -3.4262250607
  123      C      -5.5828243510    -2.4962666843     2.9184036872
  124      C      -1.4570720120    -3.1525446549    -1.4400617379
  125      C      -3.8403840883     2.1735028994     0.2761955261
  126      C      -7.2245255976    -1.6338490659     1.4313506053
  127      C      -6.0336431636     1.7927908483    -0.5704283352
  128      C      -4.6173026243     1.9295204988     1.3655348564
  129      C      -6.0967900450    -0.1652946310     2.6291675341
  130      C      -4.3210010793    -2.1950262831     3.4227738407
  131      C      -4.0661026360     1.4649510055    -2.0028006017
  132      C      -2.1233441687    -2.7931847464     2.5522363307
  133      C      -6.7769509538     0.8306648361    -1.3619515919
  134      C      -7.3379608253    -0.3091147472    -0.6256035589
  135      C      -1.7212672717    -1.4572124195     2.6493141896
  136      C      -4.3010874880    -4.7611979253    -0.1334077564
  137      C      -2.2969851007    -4.1984012770     0.6363659466
  138      C      -2.2070031929    -4.1645226038    -0.8232523226
  139      C      -1.9878322389    -2.4907004035    -2.5813021895
  140      C      -7.1338194718    -1.4818155704    -1.3908519414
  141      C      -4.6283336813     2.0594958754    -0.8854024411
  142      C      -1.6508107870    -1.1358300273    -2.5212871528
  143      C      -6.4605458982    -1.4967875872     2.5488358043
  144      C      -2.7476188055     1.0217534213    -2.0252792568
  145      C      -4.0573604057     1.1873656288     2.4924709064
  146      C      -6.2034112815    -3.7338601585    -1.2568192115
  147      C      -0.7629258632    -2.2547408496    -0.6559402860
  148      C      -5.9052073357     1.5946001627     0.9240647863
  149      C      -4.0166305514    -3.7758369753    -2.3689383532
  150      C      -4.8109034688     0.2266691820     3.1271174137
  151      C      -2.4844541907     1.7327009753     0.2950575638
  152      C      -4.1371614109    -4.1033652579     2.2103282405
  153      C      -5.5125164980    -3.7158787734     2.2370416998
  154      C      -1.9386891879     1.0817453286     1.3772531596
  155      C      -7.0804398628    -2.7532982830    -0.7570409847
  156      C      -7.3348348292    -0.3893167171     0.7783903414
  157      C      -5.6430332311    -4.3600504516    -0.0969889837
  158      C      -6.0524345139     0.1713883683    -2.4823945700
  159      C      -0.9949936927     0.1386385292    -0.5161916844
  160      C      -6.6356897618     0.5439348273     1.5410532613
  161      C      -2.7686882905     0.7008266350     2.4199244589
  162      C      -5.3294329704    -3.4285141365    -2.3332780907
  163      C      -0.9362214184    -1.1594340737     1.5050117535
  164      C      -3.2623942633    -2.7617437639    -3.0521781210
  165      C      -1.5442305875    -3.3448366131     1.4352507991
  166      C      -1.9613362848     1.1352431314    -0.8725668541
  167      C      -0.9575464200     0.0615267846     0.9048169294
  168      C      -4.7435776244     0.5613216620    -2.8852589009
  169      C      -6.2789536271    -1.1721532379    -2.4466448319
  170      C      -3.5576124088    -4.6371691499     1.0208702298
  171      C      -0.9267164989    -0.9882748107    -1.3328933124
  172      C      -3.9739652800    -0.8294623299     3.4712840846
  173      C      -6.2751584415    -3.8592628316     1.0434826197
  174      C      -3.3891888769    -3.1520220176     2.9745939844
  175      C      -5.4079545258    -2.1529448978    -2.9666614522
  176      C      -3.4984566632    -4.4748273009    -1.2572741295
 ----------------------------------------------------------------

    9   -5804.2758436359      9.01E-06 Convergence criterion met
 Total energy in the final basis set = -5804.2758436359

                    Orbital Energies (a.u.)
 --------------------------------------------------------------

 Alpha MOs
 -- Occupied --
-19.206 -19.176 -19.144 -19.128 -10.324 -10.313 -10.249 -10.242
-10.240 -10.239 -10.236 -10.235 -10.235 -10.234 -10.231 -10.229
-10.227 -10.226 -10.225 -10.225 -10.224 -10.224 -10.223 -10.222
-10.222 -10.221 -10.221 -10.220 -10.220 -10.219 -10.219 -10.219
-10.218 -10.218 -10.218 -10.218 -10.218 -10.217 -10.217 -10.217
-10.217 -10.217 -10.217 -10.217 -10.217 -10.216 -10.216 -10.216
-10.216 -10.216 -10.216 -10.216 -10.216 -10.216 -10.216 -10.215
-10.215 -10.215 -10.215 -10.215 -10.215 -10.215 -10.215 -10.215
-10.215 -10.215 -10.214 -10.214 -10.214 -10.214 -10.214 -10.214
-10.214 -10.214 -10.214 -10.213 -10.213 -10.213 -10.213 -10.213
-10.213 -10.213 -10.213 -10.213 -10.213 -10.213 -10.213 -10.213
-10.213 -10.212 -10.212 -10.212 -10.212 -10.212 -10.212 -10.212
-10.212 -10.212 -10.211 -10.211 -10.211 -10.211 -10.211 -10.211
-10.210 -10.210 -10.210 -10.210 -10.210 -10.210 -10.210 -10.209
-10.209 -10.209 -10.209 -10.209 -10.209 -10.209 -10.209 -10.208
-10.208 -10.208 -10.207 -10.207 -10.207 -10.206 -10.206 -10.206
-10.206 -10.206 -10.206 -10.206 -10.205 -10.205 -10.204 -10.204
-10.204 -10.203 -10.203 -10.202 -10.202 -10.202 -10.199 -10.195
-10.194 -10.194 -10.192 -10.191  -1.105  -1.070  -1.022  -0.994
 -0.982  -0.980  -0.967  -0.963  -0.962  -0.960  -0.958  -0.957
 -0.937  -0.934  -0.925  -0.924  -0.923  -0.922  -0.921  -0.921
 -0.918  -0.917  -0.897  -0.896  -0.889  -0.887  -0.883  -0.882
 -0.875  -0.875  -0.857  -0.849  -0.842  -0.840  -0.837  -0.835
 -0.835  -0.834  -0.819  -0.819  -0.798  -0.797  -0.797  -0.795
 -0.794  -0.794  -0.792  -0.792  -0.790  -0.787  -0.783  -0.779
 -0.771  -0.770  -0.769  -0.767  -0.766  -0.766  -0.762  -0.762
 -0.747  -0.747  -0.744  -0.739  -0.734  -0.730  -0.716  -0.714
 -0.714  -0.713  -0.711  -0.710  -0.710  -0.708  -0.706  -0.706
 -0.705  -0.704  -0.704  -0.703  -0.702  -0.694  -0.672  -0.670
 -0.659  -0.657  -0.656  -0.654  -0.648  -0.646  -0.633  -0.631
 -0.627  -0.626  -0.624  -0.622  -0.621  -0.619  -0.616  -0.616
 -0.615  -0.613  -0.613  -0.612  -0.611  -0.608  -0.608  -0.607
 -0.606  -0.605  -0.602  -0.600  -0.569  -0.565  -0.564  -0.559
 -0.559  -0.558  -0.557  -0.556  -0.555  -0.554  -0.551  -0.550
 -0.537  -0.536  -0.531  -0.531  -0.527  -0.526  -0.526  -0.522
 -0.521  -0.519  -0.519  -0.519  -0.513  -0.513  -0.512  -0.511
 -0.507  -0.506  -0.503  -0.493  -0.492  -0.491  -0.489  -0.485
 -0.484  -0.483  -0.480  -0.479  -0.479  -0.478  -0.476  -0.474
 -0.472  -0.471  -0.470  -0.469  -0.467  -0.466  -0.464  -0.463
 -0.463  -0.462  -0.462  -0.460  -0.459  -0.459  -0.458  -0.456
 -0.453  -0.453  -0.451  -0.451  -0.447  -0.446  -0.444  -0.443
 -0.442  -0.441  -0.438  -0.437  -0.437  -0.436  -0.433  -0.431
 -0.431  -0.428  -0.427  -0.427  -0.426  -0.423  -0.422  -0.421
 -0.420  -0.420  -0.419  -0.418  -0.417  -0.417  -0.416  -0.416
 -0.416  -0.415  -0.414  -0.413  -0.413  -0.412  -0.411  -0.410
 -0.408  -0.408  -0.407  -0.404  -0.401  -0.399  -0.396  -0.396
 -0.394  -0.394  -0.389  -0.387  -0.387  -0.387  -0.385  -0.382
 -0.379  -0.376  -0.374  -0.370  -0.368  -0.368  -0.367  -0.365
 -0.363  -0.362  -0.361  -0.360  -0.360  -0.359  -0.357  -0.356
 -0.356  -0.355  -0.354  -0.354  -0.353  -0.352  -0.351  -0.349
 -0.348  -0.348  -0.347  -0.346  -0.345  -0.345  -0.344  -0.343
 -0.341  -0.340  -0.339  -0.339  -0.337  -0.335  -0.334  -0.333
 -0.332  -0.330  -0.329  -0.328  -0.326  -0.325  -0.324  -0.320
 -0.310  -0.308  -0.304  -0.289  -0.288  -0.287  -0.277  -0.271
 -0.270  -0.269  -0.268  -0.265  -0.264  -0.263  -0.261  -0.261
 -0.260  -0.259  -0.257  -0.256  -0.255  -0.255  -0.252  -0.252
 -0.250  -0.248  -0.244  -0.241  -0.224  -0.221  -0.209  -0.208
 -0.207  -0.206  -0.204  -0.203  -0.198  -0.196

          Ground-State Mulliken Net Atomic Charges

     Atom                 Charge (a.u.)
  ----------------------------------------
      1 O                    -0.487200
      2 C                    -0.072972
      3 H                     0.123920
      4 H                     0.133758
      5 H                     0.122359
      6 O                    -0.469119
      7 C                     0.570388
      8 C                    -0.248362
      9 H                     0.135331
     10 H                     0.126621
     11 C                    -0.187876
     12 H                     0.124244
     13 H                     0.127162
     14 C                    -0.196947
     15 H                     0.109941
     16 H                     0.114143
     17 C                     0.012751
     18 C                     0.112521
     19 C                    -0.105103
     20 H                     0.086359
     21 C                    -0.094332
     22 H                     0.085133
     23 C                    -0.077419
     24 H                     0.094529
     25 C                    -0.092996
     26 H                     0.090879
     27 C                    -0.118449
     28 H                     0.088277
     29 C                    -0.001879
     30 C                    -0.009724
     31 C                    -0.005130
     32 C                     0.026713
     33 C                     0.007904
     34 C                    -0.005458
     35 C                    -0.022505
     36 C                    -0.009000
     37 C                     0.006081
     38 C                    -0.016613
     39 C                    -0.083401
     40 C                    -0.017519
     41 C                     0.022858
     42 C                    -0.001107
     43 C                    -0.007184
     44 C                     0.019133
     45 C                    -0.097202
     46 C                     0.019137
     47 C                    -0.002729
     48 C                     0.003780
     49 C                    -0.009853
     50 C                     0.040033
     51 C                     0.004807
     52 C                     0.009614
     53 C                     0.043535
     54 C                     0.008963
     55 C                     0.008084
     56 C                    -0.011355
     57 C                    -0.020659
     58 C                    -0.024127
     59 C                    -0.003342
     60 C                     0.053975
     61 C                    -0.012011
     62 C                    -0.005591
     63 C                     0.004287
     64 C                    -0.008296
     65 C                     0.004467
     66 C                    -0.010698
     67 C                    -0.022525
     68 C                    -0.010296
     69 C                    -0.001456
     70 C                     0.033007
     71 C                     0.001816
     72 C                    -0.017546
     73 C                     0.011608
     74 C                     0.020327
     75 C                     0.009434
     76 C                    -0.025090
     77 C                    -0.030122
     78 C                    -0.021175
     79 C                    -0.004935
     80 C                     0.030011
     81 C                     0.005180
     82 C                     0.013336
     83 C                    -0.004156
     84 C                    -0.002157
     85 C                     0.019410
     86 C                    -0.005087
     87 C                    -0.003226
     88 C                    -0.022123
     89 O                    -0.453692
     90 C                    -0.090934
     91 H                     0.127418
     92 H                     0.121120
     93 H                     0.130475
     94 O                    -0.467585
     95 C                     0.611096
     96 C                    -0.279394
     97 H                     0.131343
     98 H                     0.131409
     99 C                    -0.178398
    100 H                     0.111021
    101 H                     0.120451
    102 C                    -0.190972
    103 H                     0.120564
    104 H                     0.105350
    105 C                     0.004449
    106 C                     0.104743
    107 C                    -0.104406
    108 H                     0.092738
    109 C                    -0.094955
    110 H                     0.094203
    111 C                    -0.081738
    112 H                     0.094461
    113 C                    -0.093653
    114 H                     0.093745
    115 C                    -0.117059
    116 H                     0.090643
    117 C                     0.003886
    118 C                     0.000845
    119 C                     0.003055
    120 C                    -0.010417
    121 C                    -0.033201
    122 C                    -0.012204
    123 C                     0.011680
    124 C                    -0.003677
    125 C                    -0.001919
    126 C                    -0.018536
    127 C                    -0.079831
    128 C                    -0.008775
    129 C                    -0.033330
    130 C                     0.002073
    131 C                     0.025362
    132 C                     0.018600
    133 C                    -0.091579
    134 C                     0.031766
    135 C                    -0.019747
    136 C                     0.011819
    137 C                    -0.021967
    138 C                    -0.002780
    139 C                    -0.019748
    140 C                    -0.004525
    141 C                     0.029694
    142 C                     0.009977
    143 C                     0.046250
    144 C                     0.000596
    145 C                    -0.008113
    146 C                    -0.014613
    147 C                    -0.001405
    148 C                     0.052541
    149 C                     0.005792
    150 C                    -0.002197
    151 C                     0.011678
    152 C                    -0.021509
    153 C                    -0.022210
    154 C                    -0.029189
    155 C                    -0.018368
    156 C                    -0.005458
    157 C                     0.004338
    158 C                     0.034788
    159 C                     0.003237
    160 C                     0.016066
    161 C                     0.052715
    162 C                     0.007526
    163 C                     0.027820
    164 C                     0.007049
    165 C                     0.012920
    166 C                    -0.020509
    167 C                    -0.025067
    168 C                    -0.027016
    169 C                     0.031359
    170 C                     0.003789
    171 C                    -0.009068
    172 C                    -0.001606
    173 C                     0.005463
    174 C                     0.002419
    175 C                    -0.017657
    176 C                    -0.001084
  ----------------------------------------
  Sum of atomic charges =     0.000000

                    Cartesian Multipole Moments
 -----------------------------------------------------------------
    Charge (ESU x 10^10)
                 0.0000
    Dipole Moment (Debye)
         X      -4.4148      Y       3.3153      Z       0.1254
       Tot       5.5224
    Quadrupole Moments (Debye-Ang)
        XX    -757.2462     XY     -44.4036     YY    -816.8779
        XZ      -7.3146     YZ      -8.4462     ZZ    -790.0240

 Total job time:  860.17s(wall), 7329.19s(cpu)
        *  Thank you very much for using Q-Chem.  Have a nice day.  *
