 Q-Chem 4.4, Q-Chem, Inc., Pleasanton, CA (2016)
 Q-Chem 4.4.2 for Intel X86 Linux

User input:
--------------------------------------------------------------
$comment
SP
$end

$rem
MEM_STATIC 5000
MEM_TOTAL 20000
JOBTYPE SP
EXCHANGE B3LYP
BASIS 6-31g(d,p)
$end

$molecule
0 1
O         -17.762000     20.580000     10.212000
C         -16.635000     20.304000     11.135000
H         -16.927000     20.794000     12.071000
H         -15.740000     20.837000     10.788000
H         -16.531000     19.223000     11.292000
O         -17.158000     19.274000      8.467000
C         -17.941000     20.074000      8.977000
C         -19.148000     20.669000      8.296000
H         -19.123000     21.728000      8.581000
H         -20.064000     20.202000      8.679000
C         -19.077000     20.411000      6.813000
H         -18.160000     20.865000      6.419000
H         -19.022000     19.328000      6.649000
C         -20.283000     21.163000      6.250000
H         -21.184000     20.619000      6.559000
H         -20.455000     22.115000      6.769000
C         -20.266000     21.407000      4.764000
C         -19.007000     22.170000      4.363000
C         -17.821000     21.541000      3.932000
H         -17.696000     20.463000      3.892000
C         -16.814000     22.345000      3.362000
H         -15.833000     21.902000      3.216000
C         -16.905000     23.764000      3.418000
H         -16.054000     24.366000      3.115000
C         -18.027000     24.385000      3.901000
H         -18.210000     25.456000      3.895000
C         -19.051000     23.555000      4.320000
H         -19.936000     24.034000      4.728000
C         -23.196000     23.090000      0.425000
C         -21.562000     21.504000     -0.516000
C         -24.566000     18.196000     -1.216000
C         -25.793000     20.814000      4.300000
C         -23.771000     16.262000      1.482000
C         -21.913000     22.545000      0.415000
C         -26.032000     18.066000      3.699000
C         -24.779000     20.580000     -1.627000
C         -20.535000     18.710000      2.153000
C         -24.923000     19.851000      4.803000
C         -20.889000     20.334000      3.864000
C         -21.218000     18.092000      3.224000
C         -23.699000     17.971000      4.602000
C         -25.624000     17.157000      2.758000
C         -20.503000     21.034000      1.432000
C         -25.812000     17.168000      0.359000
C         -21.608000     21.611000      4.041000
C         -22.983000     21.450000      4.637000
C         -24.473000     16.628000      0.326000
C         -27.013000     20.853000      1.043000
C         -26.527000     19.323000     -0.488000
C         -25.986000     20.536000     -0.957000
C         -23.852000     21.611000     -1.362000
C         -23.831000     22.280000      3.905000
C         -20.408000     20.080000      2.489000
C         -22.550000     21.031000     -1.439000
C         -25.028000     18.483000      4.627000
C         -20.708000     20.581000      0.121000
C         -22.223000     17.104000      2.958000
C         -25.908000     22.382000      2.656000
C         -24.062000     19.390000     -1.763000
C         -21.522000     19.047000      4.210000
C         -25.426000     22.521000      0.220000
C         -23.422000     16.939000      3.656000
C         -20.817000     18.251000      0.874000
C         -27.104000     18.568000      1.777000
C         -26.904000     18.969000      3.095000
C         -21.724000     17.170000      0.630000
C         -25.236000     22.017000      3.835000
C         -23.540000     20.180000      5.046000
C         -26.796000     21.333000      2.375000
C         -21.853000     22.436000      2.875000
C         -21.882000     18.755000     -1.049000
C         -22.806000     19.025000      4.846000
C         -22.411000     16.606000      1.677000
C         -25.248000     22.973000      1.542000
C         -23.720000     17.228000     -0.693000
C         -24.200000     22.566000     -0.440000
C         -25.825000     18.136000     -0.621000
C         -20.945000     19.180000     -0.168000
C         -22.392000     17.538000     -0.537000
C         -21.266000     22.200000      1.613000
C         -23.201000     22.870000      2.850000
C         -27.162000     19.501000      0.701000
C         -22.712000     19.674000     -1.648000
C         -24.411000     16.491000      2.746000
C         -26.804000     20.335000      3.427000
C         -26.351000     17.428000      1.557000
C         -23.873000     23.160000      1.669000
C         -26.301000     21.447000     -0.022000
O         -22.584000     28.521000      0.439000
C         -21.300000     27.886000      0.598000
H         -20.613000     28.490000      1.205000
H         -20.787000     27.504000     -0.293000
H         -21.421000     26.953000      1.161000
O         -23.850000     26.615000      0.274000
C         -23.723000     27.862000      0.175000
C         -24.844000     28.840000     -0.274000
H         -24.630000     29.610000      0.477000
H         -25.855000     28.422000     -0.196000
C         -24.741000     29.411000     -1.680000
H         -25.272000     30.366000     -1.777000
H         -23.707000     29.731000     -1.861000
C         -25.078000     28.423000     -2.754000
H         -25.002000     27.397000     -2.374000
H         -26.113000     28.415000     -3.119000
C         -24.212000     28.635000     -4.115000
C         -24.598000     29.831000     -4.939000
C         -24.060000     31.097000     -4.623000
H         -23.453000     31.083000     -3.722000
C         -24.413000     32.261000     -5.284000
H         -23.955000     33.216000     -5.045000
C         -25.441000     32.202000     -6.225000
H         -25.599000     33.078000     -6.847000
C         -25.983000     30.973000     -6.540000
H         -26.785000     30.972000     -7.273000
C         -25.608000     29.853000     -5.891000
H         -26.109000     28.937000     -6.187000
C         -22.202000     26.313000     -8.639000
C         -20.433000     27.858000     -8.109000
C         -17.375000     24.863000     -6.589000
C         -23.262000     23.308000     -4.686000
C         -18.077000     25.400000     -3.257000
C         -21.819000     27.559000     -8.165000
C         -20.836000     23.102000     -3.283000
C         -18.920000     24.807000     -8.487000
C         -20.401000     28.595000     -4.166000
C         -23.055000     24.082000     -3.506000
C         -22.743000     28.217000     -4.077000
C         -20.676000     27.752000     -3.043000
C         -21.460000     25.178000     -2.147000
C         -19.493000     23.437000     -3.113000
C         -21.443000     28.718000     -6.257000
C         -17.840000     23.593000     -4.837000
C         -23.661000     27.465000     -4.895000
C         -23.899000     26.038000     -4.557000
C         -17.482000     24.850000     -4.379000
C         -20.909000     22.395000     -7.089000
C         -18.759000     22.917000     -7.013000
C         -19.317000     23.536000     -8.136000
C         -19.830000     25.684000     -9.049000
C         -24.180000     25.349000     -5.715000
C         -21.545000     28.793000     -4.880000
C         -19.435000     26.975000     -8.541000
C         -21.821000     23.974000     -2.739000
C         -20.201000     28.641000     -6.919000
C         -19.698000     26.830000     -2.618000
C         -23.190000     23.448000     -6.893000
C         -17.947000     25.448000     -7.762000
C         -22.070000     27.442000     -2.985000
C         -21.667000     24.120000     -8.646000
C         -20.077000     25.552000     -2.165000
C         -19.105000     28.486000     -4.797000
C         -19.771000     22.096000     -4.971000
C         -21.034000     22.286000     -4.347000
C         -18.167000     27.552000     -4.353000
C         -23.825000     23.989000     -5.796000
C         -23.350000     25.413000     -3.421000
C         -22.200000     22.493000     -6.467000
C         -23.506000     27.376000     -6.395000
C         -17.978000     27.613000     -6.615000
C         -22.419000     26.103000     -2.566000
C         -18.417000     26.761000     -3.187000
C         -22.859000     24.269000     -8.025000
C         -17.073000     25.602000     -5.458000
C         -21.194000     25.379000     -9.056000
C         -17.775000     23.556000     -6.235000
C         -18.961000     28.530000     -6.189000
C         -17.483000     26.991000     -5.449000
C         -22.382000     28.052000     -6.990000
C         -23.824000     26.132000     -6.832000
C         -19.752000     22.173000     -6.361000
C         -18.242000     26.811000     -7.748000
C         -19.123000     24.680000     -2.600000
C         -22.244000     22.393000     -5.123000
C         -18.848000     22.872000     -4.182000
C         -23.241000     25.598000     -7.999000
C         -20.658000     23.235000     -8.204000
$end

--------------------------------------------------------------

             Standard Nuclear Orientation (Angstroms)
    I     Atom           X                Y                Z
 ----------------------------------------------------------------
    1      O      10.5734565435     6.4199869746     1.0340098751
    2      C      11.4321479818     7.5622210616     0.6388082752
    3      H      11.9180668148     7.8696415303     1.5719939712
    4      H      10.7994476440     8.4087539253     0.3411584923
    5      H      12.1857654563     7.2347500748    -0.0884120867
    6      O       9.8939750606     5.7255735654    -1.0084327634
    7      C       9.8756646906     5.6092432298     0.2160348692
    8      C       9.0305497947     4.6263324244     0.9869448259
    9      H       8.6423006128     5.2093650755     1.8311405974
   10      H       9.6548534719     3.8040414465     1.3583158885
   11      C       7.9756935673     4.0409277364     0.0839090067
   12      H       7.3500157608     4.8544504718    -0.3020301612
   13      H       8.4724483788     3.5569622862    -0.7656921351
   14      C       7.1345499571     3.1693885080     1.0165428044
   15      H       7.7431347081     2.2994883466     1.2924346493
   16      H       7.0073249600     3.6271126274     2.0062657104
   17      C       5.7866564249     2.7564204182     0.4867679630
   18      C       4.9595465722     3.9842412265     0.1174491925
   19      C       4.9239563326     4.5361509031    -1.1795192126
   20      H       5.5151704101     4.1566680707    -2.0076301318
   21      C       3.9472405992     5.5129748953    -1.4573793655
   22      H       4.0433461157     6.0785727197    -2.3797615156
   23      C       3.1684152376     6.0744548382    -0.4070702063
   24      H       2.5330871911     6.9304012035    -0.6123214983
   25      C       3.2479528761     5.5905955328     0.8725265804
   26      H       2.6261417057     5.9026194614     1.7071270456
   27      C       4.1181948912     4.5342653503     1.0722323155
   28      H       4.2091597822     4.1576011354     2.0866185624
   29      C       1.4184069944    -0.4893432089     1.2790591912
   30      C       1.5078419313    -0.1660832853    -1.1619113973
   31      C       3.0064663542    -4.3363092635    -2.0675714495
   32      C       6.0052566166    -2.2338386739     2.9695490952
   33      C       6.2869112960    -3.5520803598    -2.5922151482
   34      C       1.6707240294     0.3302166925     0.1800270343
   35      C       7.1328768169    -3.8409095405     0.9408495331
   36      C       1.2912297371    -3.6238306450    -0.5029361674
   37      C       5.2563517697     0.4257306632    -2.4201467655
   38      C       6.9360397133    -1.7530915585     2.0531414141
   39      C       5.7113970053     1.4526615568    -0.3157324115
   40      C       6.5160791411    -0.0228895513    -1.9648656953
   41      C       7.8154513700    -1.6308607327    -0.0168034555
   42      C       6.8822709996    -4.2363501695    -0.3471913953
   43      C       3.3138022792     1.2033482319    -1.1777082785
   44      C       4.9394407934    -5.2474176494    -1.3440962760
   45      C       5.1418044129     1.4770190183     1.0458805999
   46      C       5.7808107354     0.4848877700     1.9834884635
   47      C       5.1676741573    -4.3876707300    -2.4817934089
   48      C       3.3969230634    -4.3930988267     2.1744631454
   49      C       3.0269951047    -5.2055665577     0.1436735227
   50      C       1.9143741136    -4.3997859870     0.4548056523
   51      C       0.8625382027    -2.3149472036    -0.1938039868
   52      C       4.7410246581    -0.1176171911     2.6903552722
   53      C       4.7233190403     1.2464581861    -1.3963267410
   54      C       1.0801144718    -1.5189314371    -1.3585153100
   55      C       7.5966271442    -2.4973820753     1.0923704358
   56      C       2.5246289796     0.3668921338    -1.9798938550
   57      C       6.9223679622    -1.3778877160    -2.2011586646
   58      C       3.7623471552    -2.2372403766     3.3489309297
   59      C       1.8433661189    -3.5973310176    -1.7847817844
   60      C       6.7716366197     0.4946003463    -0.6828627386
   61      C       1.6846659131    -2.6524389539     2.0463980904
   62      C       7.6384837930    -2.1897660772    -1.3179476799
   63      C       4.5000867630    -0.4654678727    -3.1683943243
   64      C       5.3298999124    -5.1978503834     0.9979269439
   65      C       6.1553271454    -4.3856087572     1.7704930729
   66      C       4.9740900156    -1.7720210524    -3.5133373703
   67      C       4.9009960567    -1.4177499397     3.2666867633
   68      C       6.8787823227    -0.3804006760     1.6144839939
   69      C       4.1868204549    -3.5274642747     2.9981450824
   70      C       3.7259702943     1.2148351629     1.2098299050
   71      C       2.6948168257    -1.8161153149    -3.1143393477
   72      C       7.3578386552    -0.3476055385     0.3174834121
   73      C       6.1830189427    -2.2090911222    -3.0298763034
   74      C       2.4845551179    -1.8347777943     2.8681520001
   75      C       3.9574616326    -3.8703883387    -2.9646749398
   76      C       1.0681901474    -1.8567651311     1.0832979928
   77      C       3.5804870974    -5.1890795980    -1.1263015929
   78      C       3.1188081898    -0.5413231654    -2.9414483445
   79      C       3.8432383709    -2.5825988919    -3.4257295863
   80      C       2.8142260592     1.1445588817     0.1343334177
   81      C       3.5129969946     0.2807897658     2.2530396490
   82      C       3.9155739836    -5.2263327500     1.1725692128
   83      C       1.7100917067    -2.3173703390    -2.2949970255
   84      C       7.2067470584    -3.5279144347    -1.4908273063
   85      C       5.6226010447    -3.5903602640     2.8048831036
   86      C       5.7831316341    -5.1500147065    -0.3087106319
   87      C       2.4165067042    -0.5720064812     2.2829161295
   88      C       2.1547650344    -3.9287962037     1.6892090829
   89      O      -1.7680279521     2.3811199640     4.6669161103
   90      C      -1.3262118507     3.2230208562     3.5837894233
   91      H      -1.2175948814     4.2707672742     3.8930850708
   92      H      -1.8486332803     3.1612494584     2.6213788330
   93      H      -0.3197226157     2.9196066171     3.2723119454
   94      O      -0.7322512319     0.4478425406     3.9942928947
   95      C      -1.5461385734     1.0590889873     4.7324691452
   96      C      -2.4306097083     0.3968648151     5.8251246065
   97      H      -2.2808758700     1.1776225640     6.5805675993
   98      H      -2.0778987954    -0.5920243525     6.1423346725
   99      C      -3.9083965711     0.2257277269     5.5083532613
  100      H      -4.5206148109     0.1672045204     6.4167358135
  101      H      -4.2884381116     1.1540897866     5.0633484145
  102      C      -4.1871994475    -0.8672319127     4.5230121111
  103      H      -3.2836420883    -1.1139461406     3.9524262820
  104      H      -4.4318791123    -1.8567045738     4.9299392725
  105      C      -5.4532651271    -0.5478614077     3.5522901244
  106      C      -6.8020631524    -0.6426524026     4.2081457137
  107      C      -7.3090887904     0.4652612223     4.9205419532
  108      H      -6.5977807260     1.2838457336     4.9869214332
  109      C      -8.5085478737     0.4422976328     5.6113361202
  110      H      -8.8928577072     1.3213654858     6.1197214678
  111      C      -9.1907343069    -0.7701653746     5.7128305836
  112      H     -10.1992322274    -0.7431788945     6.1146112131
  113      C      -8.7043161835    -1.8649479678     5.0285218209
  114      H      -9.2618995994    -2.7908880367     5.1391098991
  115      C      -7.5412593364    -1.8089948975     4.3499984061
  116      H      -7.2239907329    -2.7270875260     3.8661393785
  117      C      -7.8558478000    -1.5190035596    -1.2625659919
  118      C      -8.4076172898     0.8038974823    -0.9511704563
  119      C      -5.5646260889     2.5741434302    -4.0196259824
  120      C      -2.8493579166    -2.2824802168    -0.8992528470
  121      C      -3.1452670082     3.4227166798    -1.7152774674
  122      C      -8.2161363493    -0.4911589161    -0.4037245921
  123      C      -1.7008229662     0.1355219410    -1.7539188828
  124      C      -7.0011469277     0.5925827630    -4.0685156746
  125      C      -5.6426842461     2.5649383547     1.3608248528
  126      C      -2.3538545101    -1.3518836265     0.0613674528
  127      C      -5.2445351914     0.4977640029     2.4581108362
  128      C      -4.2278128055     2.3742764870     1.4566886041
  129      C      -1.9636319662     0.9295359988     0.5461074444
  130      C      -1.8189645016     1.4515883550    -2.1997728630
  131      C      -7.3627836465     1.0074811596     1.0629001344
  132      C      -3.3820247430     2.2666002079    -3.8188835329
  133      C      -5.4274263585    -0.8808183195     2.0794109532
  134      C      -4.3097171704    -1.5762498864     1.3907033906
  135      C      -3.7605810087     3.2728313670    -2.9458594735
  136      C      -4.3703581020    -1.5972134950    -3.9589186713
  137      C      -4.7101631638     0.4330950651    -4.7732525529
  138      C      -5.9568090873    -0.1617603159    -4.5549064581
  139      C      -7.9277609144     0.0202579230    -3.2159291410
  140      C      -4.8336739547    -2.5231568927     0.5401256989
  141      C      -6.2856438221     1.4497367719     1.8087806691
  142      C      -8.2872934941     1.0897653848    -2.3172300182
  143      C      -1.7245122217    -0.1042107768    -0.3508821608
  144      C      -7.9103850264     1.7626455757     0.0062088676
  145      C      -3.3890552138     2.9340843768     0.4716536662
  146      C      -4.7235307111    -2.9538244152    -1.8648647275
  147      C      -6.8313302630     1.9350132960    -3.8398727991
  148      C      -3.9371313255     1.1087234397     2.0538316034
  149      C      -6.6054601242    -2.0324068195    -3.0704572367
  150      C      -2.2587496567     2.2281582656     0.0175483116
  151      C      -6.1489034815     3.3619305329     0.2662000068
  152      C      -2.5299509402    -0.0272346043    -3.8231366359
  153      C      -2.0781733777    -0.7642791404    -2.6947274079
  154      C      -5.2859385754     3.8902934750    -0.6958083988
  155      C      -4.1214313282    -2.8498634754    -0.6295576984
  156      C      -3.0486249369    -0.9867738188     1.1793119426
  157      C      -3.8652389902    -2.3980828670    -2.8788113007
  158      C      -6.5984938203    -1.3294914724     1.2372474288
  159      C      -7.1638476273     3.2615541799    -1.8067676651
  160      C      -2.8001312077     0.3888807992     1.5253050618
  161      C      -3.8676857670     3.7583043490    -0.5584226567
  162      C      -6.1353752416    -2.7296855031    -2.0114347438
  163      C      -5.0926894371     3.5504402802    -3.1590411479
  164      C      -7.6940429327    -1.2416536728    -2.6622821150
  165      C      -4.4967068061     1.8027555660    -4.5276359905
  166      C      -7.3095572667     3.0006997796    -0.4285885465
  167      C      -5.8777566631     3.8184825600    -1.9718912893
  168      C      -7.5260219190    -0.3205925567     0.7943122146
  169      C      -6.2123006644    -2.2894950249     0.3603910977
  170      C      -3.7026238990    -0.4766783436    -4.4241594782
  171      C      -7.6023397497     2.2885595285    -2.7328319539
  172      C      -2.1452998573     2.4813788992    -1.3176421069
  173      C      -2.7153077643    -1.9957871314    -2.3008075664
  174      C      -2.3848045360     1.3555043723    -3.4442020187
  175      C      -6.8728960574    -2.4584836621    -0.8732987204
  176      C      -5.7759132092    -1.4248132379    -4.0396589470
 ----------------------------------------------------------------

    9   -5804.2354232658      9.69E-06 Convergence criterion met
 Total energy in the final basis set = -5804.2354232658

                    Orbital Energies (a.u.)
 --------------------------------------------------------------

 Alpha MOs
 -- Occupied --
-19.203 -19.185 -19.134 -19.126 -10.326 -10.311 -10.254 -10.248
-10.243 -10.240 -10.236 -10.234 -10.232 -10.231 -10.230 -10.225
-10.224 -10.224 -10.224 -10.223 -10.222 -10.221 -10.220 -10.220
-10.220 -10.220 -10.220 -10.219 -10.219 -10.218 -10.217 -10.217
-10.217 -10.216 -10.216 -10.215 -10.215 -10.215 -10.215 -10.215
-10.215 -10.215 -10.214 -10.214 -10.214 -10.214 -10.214 -10.214
-10.213 -10.213 -10.213 -10.213 -10.213 -10.213 -10.213 -10.213
-10.212 -10.212 -10.212 -10.212 -10.212 -10.212 -10.212 -10.211
-10.211 -10.211 -10.211 -10.211 -10.211 -10.211 -10.211 -10.211
-10.210 -10.210 -10.210 -10.210 -10.210 -10.210 -10.210 -10.210
-10.210 -10.210 -10.209 -10.209 -10.209 -10.209 -10.209 -10.209
-10.209 -10.209 -10.209 -10.209 -10.209 -10.209 -10.209 -10.208
-10.208 -10.208 -10.208 -10.208 -10.207 -10.207 -10.207 -10.207
-10.207 -10.207 -10.207 -10.207 -10.206 -10.206 -10.206 -10.206
-10.205 -10.205 -10.205 -10.205 -10.205 -10.204 -10.204 -10.204
-10.204 -10.204 -10.203 -10.203 -10.203 -10.202 -10.202 -10.202
-10.202 -10.202 -10.201 -10.200 -10.200 -10.200 -10.199 -10.198
-10.198 -10.197 -10.197 -10.197 -10.197 -10.196 -10.195 -10.194
-10.194 -10.193 -10.191 -10.187  -1.098  -1.083  -0.995  -0.995
 -0.982  -0.980  -0.968  -0.964  -0.962  -0.958  -0.957  -0.956
 -0.935  -0.932  -0.926  -0.924  -0.922  -0.921  -0.920  -0.919
 -0.918  -0.915  -0.897  -0.893  -0.890  -0.887  -0.884  -0.881
 -0.876  -0.872  -0.862  -0.855  -0.841  -0.838  -0.837  -0.834
 -0.833  -0.832  -0.822  -0.821  -0.813  -0.809  -0.799  -0.794
 -0.793  -0.792  -0.790  -0.789  -0.788  -0.787  -0.781  -0.780
 -0.770  -0.767  -0.766  -0.765  -0.765  -0.763  -0.762  -0.761
 -0.757  -0.752  -0.750  -0.745  -0.734  -0.732  -0.715  -0.714
 -0.711  -0.710  -0.710  -0.709  -0.708  -0.708  -0.707  -0.706
 -0.705  -0.704  -0.703  -0.702  -0.701  -0.698  -0.671  -0.669
 -0.658  -0.655  -0.654  -0.653  -0.649  -0.643  -0.631  -0.628
 -0.625  -0.625  -0.623  -0.622  -0.620  -0.619  -0.618  -0.614
 -0.612  -0.612  -0.610  -0.609  -0.608  -0.608  -0.606  -0.605
 -0.604  -0.603  -0.600  -0.599  -0.577  -0.569  -0.565  -0.562
 -0.557  -0.556  -0.556  -0.553  -0.553  -0.552  -0.552  -0.550
 -0.537  -0.535  -0.530  -0.529  -0.528  -0.528  -0.522  -0.521
 -0.520  -0.517  -0.516  -0.515  -0.514  -0.513  -0.510  -0.508
 -0.507  -0.506  -0.498  -0.497  -0.495  -0.492  -0.485  -0.485
 -0.484  -0.481  -0.481  -0.477  -0.476  -0.474  -0.474  -0.471
 -0.470  -0.469  -0.468  -0.468  -0.466  -0.465  -0.463  -0.463
 -0.462  -0.461  -0.461  -0.460  -0.458  -0.458  -0.457  -0.456
 -0.454  -0.454  -0.451  -0.451  -0.448  -0.446  -0.445  -0.443
 -0.442  -0.439  -0.438  -0.435  -0.435  -0.434  -0.434  -0.431
 -0.428  -0.427  -0.426  -0.425  -0.424  -0.424  -0.421  -0.421
 -0.420  -0.419  -0.419  -0.418  -0.417  -0.416  -0.416  -0.416
 -0.414  -0.413  -0.413  -0.413  -0.412  -0.411  -0.410  -0.410
 -0.409  -0.408  -0.406  -0.404  -0.402  -0.400  -0.397  -0.393
 -0.391  -0.390  -0.389  -0.388  -0.387  -0.384  -0.384  -0.382
 -0.380  -0.376  -0.374  -0.372  -0.370  -0.368  -0.367  -0.365
 -0.364  -0.363  -0.362  -0.360  -0.359  -0.357  -0.356  -0.355
 -0.354  -0.353  -0.351  -0.350  -0.350  -0.349  -0.348  -0.347
 -0.346  -0.346  -0.345  -0.344  -0.342  -0.342  -0.341  -0.340
 -0.340  -0.338  -0.337  -0.336  -0.335  -0.333  -0.333  -0.330
 -0.329  -0.328  -0.327  -0.326  -0.325  -0.323  -0.322  -0.319
 -0.308  -0.304  -0.298  -0.294  -0.289  -0.284  -0.271  -0.268
 -0.268  -0.265  -0.264  -0.263  -0.262  -0.262  -0.262  -0.261
 -0.261  -0.259  -0.256  -0.256  -0.254  -0.253  -0.253  -0.250
 -0.249  -0.248  -0.244  -0.238  -0.220  -0.218  -0.214  -0.209
 -0.204  -0.202  -0.201  -0.199  -0.195  -0.192

          Ground-State Mulliken Net Atomic Charges

     Atom                 Charge (a.u.)
  ----------------------------------------
      1 O                    -0.484815
      2 C                    -0.079703
      3 H                     0.130417
      4 H                     0.133491
      5 H                     0.139901
      6 O                    -0.488158
      7 C                     0.592979
      8 C                    -0.264802
      9 H                     0.132564
     10 H                     0.137179
     11 C                    -0.170573
     12 H                     0.122192
     13 H                     0.127639
     14 C                    -0.185278
     15 H                     0.103958
     16 H                     0.104022
     17 C                     0.017634
     18 C                     0.089553
     19 C                    -0.114274
     20 H                     0.104204
     21 C                    -0.096298
     22 H                     0.094412
     23 C                    -0.096054
     24 H                     0.087532
     25 C                    -0.064120
     26 H                     0.090878
     27 C                    -0.110941
     28 H                     0.081380
     29 C                    -0.001629
     30 C                    -0.012068
     31 C                     0.006999
     32 C                    -0.012382
     33 C                    -0.020339
     34 C                     0.012340
     35 C                    -0.013983
     36 C                    -0.031096
     37 C                    -0.000205
     38 C                     0.019870
     39 C                    -0.073579
     40 C                    -0.008776
     41 C                    -0.024794
     42 C                     0.047835
     43 C                    -0.008387
     44 C                    -0.010867
     45 C                    -0.092200
     46 C                     0.016601
     47 C                    -0.006796
     48 C                    -0.004206
     49 C                    -0.012832
     50 C                     0.023822
     51 C                     0.005195
     52 C                     0.000202
     53 C                     0.038564
     54 C                     0.003290
     55 C                    -0.020044
     56 C                    -0.017092
     57 C                     0.042175
     58 C                    -0.003922
     59 C                     0.006811
     60 C                     0.023388
     61 C                    -0.001584
     62 C                    -0.027059
     63 C                    -0.015652
     64 C                    -0.007719
     65 C                     0.025395
     66 C                    -0.015918
     67 C                     0.001649
     68 C                    -0.021706
     69 C                    -0.003071
     70 C                     0.032343
     71 C                     0.013541
     72 C                     0.017233
     73 C                     0.006645
     74 C                    -0.003769
     75 C                    -0.007547
     76 C                     0.014230
     77 C                     0.012886
     78 C                     0.007317
     79 C                     0.000843
     80 C                    -0.005376
     81 C                     0.021676
     82 C                     0.000116
     83 C                    -0.004257
     84 C                    -0.026307
     85 C                    -0.031297
     86 C                     0.005183
     87 C                     0.014447
     88 C                    -0.008525
     89 O                    -0.449298
     90 C                    -0.101297
     91 H                     0.124297
     92 H                     0.134861
     93 H                     0.135581
     94 O                    -0.495865
     95 C                     0.592462
     96 C                    -0.238641
     97 H                     0.125946
     98 H                     0.130424
     99 C                    -0.188409
    100 H                     0.118260
    101 H                     0.119718
    102 C                    -0.190041
    103 H                     0.131979
    104 H                     0.113613
    105 C                    -0.022087
    106 C                     0.104410
    107 C                    -0.109714
    108 H                     0.081816
    109 C                    -0.088117
    110 H                     0.091996
    111 C                    -0.090597
    112 H                     0.090487
    113 C                    -0.078539
    114 H                     0.089384
    115 C                    -0.107432
    116 H                     0.083461
    117 C                    -0.015766
    118 C                    -0.003962
    119 C                    -0.002461
    120 C                    -0.022230
    121 C                    -0.001318
    122 C                    -0.014590
    123 C                     0.035515
    124 C                     0.016008
    125 C                    -0.000859
    126 C                    -0.004628
    127 C                    -0.085000
    128 C                    -0.002777
    129 C                     0.004237
    130 C                     0.009170
    131 C                     0.038193
    132 C                     0.000996
    133 C                    -0.105054
    134 C                     0.057633
    135 C                     0.046783
    136 C                    -0.003732
    137 C                    -0.005101
    138 C                     0.007035
    139 C                    -0.014253
    140 C                    -0.009570
    141 C                     0.033141
    142 C                    -0.018941
    143 C                    -0.018298
    144 C                    -0.017053
    145 C                    -0.003161
    146 C                    -0.005706
    147 C                     0.023108
    148 C                     0.033445
    149 C                     0.020777
    150 C                     0.000394
    151 C                     0.009549
    152 C                    -0.040368
    153 C                     0.016584
    154 C                     0.011326
    155 C                     0.001557
    156 C                     0.000056
    157 C                    -0.001787
    158 C                     0.027746
    159 C                    -0.005708
    160 C                     0.012711
    161 C                    -0.045903
    162 C                    -0.002524
    163 C                    -0.029450
    164 C                     0.003535
    165 C                    -0.010905
    166 C                    -0.029723
    167 C                    -0.005078
    168 C                     0.007979
    169 C                     0.021934
    170 C                     0.022798
    171 C                     0.002718
    172 C                    -0.015813
    173 C                    -0.007023
    174 C                    -0.017228
    175 C                    -0.001723
    176 C                    -0.006422
  ----------------------------------------
  Sum of atomic charges =     0.000000

                    Cartesian Multipole Moments
 -----------------------------------------------------------------
    Charge (ESU x 10^10)
                 0.0000
    Dipole Moment (Debye)
         X      -1.1243      Y       3.9098      Z       5.0192
       Tot       6.4608
    Quadrupole Moments (Debye-Ang)
        XX    -780.0661     XY      32.5168     YY    -779.3563
        XZ      -5.8989     YZ      14.3431     ZZ    -792.4892

 Total job time:  878.54s(wall), 7448.07s(cpu)
        *  Thank you very much for using Q-Chem.  Have a nice day.  *
