 Q-Chem 4.4, Q-Chem, Inc., Pleasanton, CA (2016)
 Q-Chem 4.4.2 for Intel X86 Linux

User input:
--------------------------------------------------------------
$comment
SP
$end

$rem
MEM_STATIC 5000
MEM_TOTAL 20000
JOBTYPE SP
EXCHANGE B3LYP
BASIS 6-31g(d,p)
$end

$molecule
0 1
O          -9.110000     33.346000    -13.472000
C          -8.065000     33.719000    -14.353000
H          -8.282000     33.494000    -15.405000
H          -7.133000     33.241000    -14.030000
H          -7.714000     34.757000    -14.303000
O          -7.977000     34.032000    -11.619000
C          -8.986000     33.520000    -12.150000
C         -10.190000     33.064000    -11.302000
H         -11.011000     33.775000    -11.459000
H          -9.902000     33.233000    -10.257000
C         -10.724000     31.676000    -11.607000
H         -11.710000     31.477000    -11.171000
H         -10.937000     31.683000    -12.683000
C          -9.885000     30.527000    -11.135000
H          -8.943000     30.545000    -11.696000
H          -9.534000     30.691000    -10.109000
C         -10.543000     29.061000    -11.315000
C         -10.968000     28.763000    -12.735000
C          -9.947000     28.257000    -13.427000
H          -8.948000     28.167000    -13.011000
C         -10.120000     27.794000    -14.774000
H          -9.251000     27.381000    -15.276000
C         -11.355000     28.076000    -15.404000
H         -11.461000     27.854000    -16.461000
C         -12.444000     28.597000    -14.684000
H         -13.419000     28.721000    -15.146000
C         -12.266000     28.853000    -13.292000
H         -13.062000     29.162000    -12.621000
C         -13.820000     25.238000     -9.107000
C         -11.985000     23.935000     -9.957000
C         -10.214000     22.865000     -5.958000
C         -12.136000     28.913000     -6.041000
C          -7.753000     25.243000     -6.207000
C         -12.815000     25.022000    -10.052000
C          -9.815000     27.970000     -4.751000
C         -12.532000     22.944000     -6.582000
C          -8.578000     26.001000    -10.024000
C         -10.909000     29.261000     -6.530000
C          -9.885000     27.968000    -10.391000
C          -8.152000     26.994000     -9.181000
C          -8.882000     28.419000     -6.907000
C          -8.960000     26.836000     -4.707000
C         -10.863000     25.598000    -10.905000
C          -9.480000     24.507000     -4.565000
C         -11.323000     28.466000    -10.158000
C         -11.681000     29.101000     -8.879000
C          -8.509000     24.233000     -5.564000
C         -13.296000     25.881000     -4.822000
C         -11.811000     24.098000     -4.586000
C         -12.843000     23.718000     -5.434000
C         -13.131000     23.240000     -7.848000
C         -12.904000     28.629000     -8.421000
C          -9.745000     26.477000    -10.672000
C         -12.164000     23.054000     -8.890000
C          -9.766000     28.698000     -5.931000
C         -10.737000     24.282000    -10.523000
C          -7.590000     26.648000     -7.963000
C         -13.855000     27.515000     -6.429000
C         -11.264000     22.474000     -6.818000
C          -8.985000     28.117000     -9.293000
C         -14.306000     25.146000     -6.862000
C          -7.964000     27.395000     -6.817000
C          -8.513000     24.608000     -9.665000
C         -11.000000     26.225000     -3.871000
C         -11.084000     27.579000     -4.276000
C          -7.897000     24.268000     -8.394000
C         -13.129000     28.541000     -6.996000
C         -10.666000     29.355000     -7.940000
C         -13.312000     27.172000     -5.197000
C         -12.388000     27.430000    -10.225000
C          -9.725000     22.954000     -8.748000
C          -9.351000     28.835000     -8.130000
C          -7.477000     25.300000     -7.539000
C         -14.360000     26.509000     -7.244000
C          -8.964000     23.235000     -6.442000
C         -13.965000     24.382000     -7.999000
C         -10.505000     23.656000     -4.800000
C          -9.630000     23.767000     -9.912000
C          -8.695000     23.238000     -7.875000
C         -12.177000     26.108000    -10.664000
C         -13.304000     27.614000     -9.204000
C         -12.108000     25.390000     -4.150000
C         -10.994000     22.512000     -8.240000
C          -8.050000     26.538000     -5.760000
C         -12.239000     28.061000     -4.948000
C          -9.647000     25.801000     -4.054000
C         -14.051000     26.556000     -8.617000
C         -13.717000     24.875000     -5.632000
O         -22.584000     28.521000      0.439000
C         -21.300000     27.886000      0.598000
H         -20.613000     28.490000      1.205000
H         -20.787000     27.504000     -0.293000
H         -21.421000     26.953000      1.161000
O         -23.850000     26.615000      0.274000
C         -23.723000     27.862000      0.175000
C         -24.844000     28.840000     -0.274000
H         -24.630000     29.610000      0.477000
H         -25.855000     28.422000     -0.196000
C         -24.741000     29.411000     -1.680000
H         -25.272000     30.366000     -1.777000
H         -23.707000     29.731000     -1.861000
C         -25.078000     28.423000     -2.754000
H         -25.002000     27.397000     -2.374000
H         -26.113000     28.415000     -3.119000
C         -24.212000     28.635000     -4.115000
C         -24.598000     29.831000     -4.939000
C         -24.060000     31.097000     -4.623000
H         -23.453000     31.083000     -3.722000
C         -24.413000     32.261000     -5.284000
H         -23.955000     33.216000     -5.045000
C         -25.441000     32.202000     -6.225000
H         -25.599000     33.078000     -6.847000
C         -25.983000     30.973000     -6.540000
H         -26.785000     30.972000     -7.273000
C         -25.608000     29.853000     -5.891000
H         -26.109000     28.937000     -6.187000
C         -22.202000     26.313000     -8.639000
C         -20.433000     27.858000     -8.109000
C         -17.375000     24.863000     -6.589000
C         -23.262000     23.308000     -4.686000
C         -18.077000     25.400000     -3.257000
C         -21.819000     27.559000     -8.165000
C         -20.836000     23.102000     -3.283000
C         -18.920000     24.807000     -8.487000
C         -20.401000     28.595000     -4.166000
C         -23.055000     24.082000     -3.506000
C         -22.743000     28.217000     -4.077000
C         -20.676000     27.752000     -3.043000
C         -21.460000     25.178000     -2.147000
C         -19.493000     23.437000     -3.113000
C         -21.443000     28.718000     -6.257000
C         -17.840000     23.593000     -4.837000
C         -23.661000     27.465000     -4.895000
C         -23.899000     26.038000     -4.557000
C         -17.482000     24.850000     -4.379000
C         -20.909000     22.395000     -7.089000
C         -18.759000     22.917000     -7.013000
C         -19.317000     23.536000     -8.136000
C         -19.830000     25.684000     -9.049000
C         -24.180000     25.349000     -5.715000
C         -21.545000     28.793000     -4.880000
C         -19.435000     26.975000     -8.541000
C         -21.821000     23.974000     -2.739000
C         -20.201000     28.641000     -6.919000
C         -19.698000     26.830000     -2.618000
C         -23.190000     23.448000     -6.893000
C         -17.947000     25.448000     -7.762000
C         -22.070000     27.442000     -2.985000
C         -21.667000     24.120000     -8.646000
C         -20.077000     25.552000     -2.165000
C         -19.105000     28.486000     -4.797000
C         -19.771000     22.096000     -4.971000
C         -21.034000     22.286000     -4.347000
C         -18.167000     27.552000     -4.353000
C         -23.825000     23.989000     -5.796000
C         -23.350000     25.413000     -3.421000
C         -22.200000     22.493000     -6.467000
C         -23.506000     27.376000     -6.395000
C         -17.978000     27.613000     -6.615000
C         -22.419000     26.103000     -2.566000
C         -18.417000     26.761000     -3.187000
C         -22.859000     24.269000     -8.025000
C         -17.073000     25.602000     -5.458000
C         -21.194000     25.379000     -9.056000
C         -17.775000     23.556000     -6.235000
C         -18.961000     28.530000     -6.189000
C         -17.483000     26.991000     -5.449000
C         -22.382000     28.052000     -6.990000
C         -23.824000     26.132000     -6.832000
C         -19.752000     22.173000     -6.361000
C         -18.242000     26.811000     -7.748000
C         -19.123000     24.680000     -2.600000
C         -22.244000     22.393000     -5.123000
C         -18.848000     22.872000     -4.182000
C         -23.241000     25.598000     -7.999000
C         -20.658000     23.235000     -8.204000
$end

--------------------------------------------------------------

             Standard Nuclear Orientation (Angstroms)
    I     Atom           X                Y                Z
 ----------------------------------------------------------------
    1      O       9.3567048624    -7.0237678423    -0.9520938601
    2      C      10.6758351210    -7.5174984552    -0.7989911407
    3      H      10.8566994370    -7.9784578093     0.1804079470
    4      H      11.3888197670    -6.7079655216    -0.9932752732
    5      H      11.0425168942    -8.2128820441    -1.5639297929
    6      O       9.7496016936    -6.2352118755    -3.0524999083
    7      C       8.9855045783    -6.3993448703    -2.0771015495
    8      C       7.5268143201    -5.9017513881    -2.1128710478
    9      H       6.8678550322    -6.7733671769    -2.2142099519
   10      H       7.4109796796    -5.3810717425    -3.0715185549
   11      C       7.0660531288    -5.1206605247    -0.8953649132
   12      H       5.9786747428    -4.9930529259    -0.8386414947
   13      H       7.2732008003    -5.7767498716    -0.0410636718
   14      C       7.5978250774    -3.7251991401    -0.7657033580
   15      H       8.6808153547    -3.7908654653    -0.6068669864
   16      H       7.5471072164    -3.1938220658    -1.7237425553
   17      C       6.9708831332    -2.8476429279     0.4390202173
   18      C       7.0931557784    -3.5104434085     1.7923767569
   19      C       8.2677205345    -3.2132936061     2.3486506361
   20      H       9.0304920372    -2.6403239366     1.8299576705
   21      C       8.5860612389    -3.6368940598     3.6820406209
   22      H       9.5541585392    -3.3500359575     4.0798270539
   23      C       7.6965143281    -4.5436154278     4.3051069531
   24      H       7.9821133803    -4.9793657280     5.2571173823
   25      C       6.4494153207    -4.8557623963     3.7367141875
   26      H       5.7280971264    -5.4743194448     4.2625775161
   27      C       6.1066994958    -4.2427327040     2.4950924820
   28      H       5.1366275098    -4.3345666332     2.0156502318
   29      C       2.8871289924     0.4882854393     1.9958940228
   30      C       4.8273511629     1.5495615245     2.9428707912
   31      C       4.9023757058     5.0790712264     0.1481839426
   32      C       3.5094705924    -0.2626515502    -2.9831241104
   33      C       7.4115776913     3.7385469241    -1.7702284195
   34      C       4.1588040976     0.4130168269     2.5676309052
   35      C       5.1172916287     1.8255654598    -3.9804461417
   36      C       2.9968455937     4.0398819417     1.1766690529
   37      C       8.1251147198     0.8138236860     0.8300671194
   38      C       4.8483994158    -0.4711262001    -3.1550599308
   39      C       7.1688775634    -1.2969710445     0.2451029269
   40      C       8.2609633823     0.6109999592    -0.5184808689
   41      C       6.8157161190     0.5393562518    -2.8935026640
   42      C       5.8253531664     2.9779391538    -3.5450144844
   43      C       6.3183462728     0.0223841661     2.3363892181
   44      C       5.1547341765     4.7512376565    -2.0888250768
   45      C       5.7803336852    -1.9544390690     0.1460135991
   46      C       5.0063634674    -1.8490382280    -1.1018208309
   47      C       6.4118266100     4.6827032561    -1.4323651392
   48      C       1.8015125085     2.4832546226    -1.7311402952
   49      C       2.9823390267     4.4254183689    -1.2080162980
   50      C       2.3236469927     3.9763567066    -0.0709162901
   51      C       2.9351275383     2.9457523498     2.0976708541
   52      C       3.6755113400    -1.5587213058    -0.8319584592
   53      C       7.3165803602    -0.2372621516     1.3299268509
   54      C       4.2098056496     2.7830346013     2.7334126623
   55      C       5.6480284128     0.6150550433    -3.5588207186
   56      C       6.2145428609     1.3052226845     2.8234273969
   57      C       8.3035401697     1.7080365646    -1.3633370127
   58      C       1.9830615139     0.1568595291    -1.3850018437
   59      C       4.2308917651     4.6271623244     1.3057109019
   60      C       7.5981272538    -0.5641215592    -0.9022772783
   61      C       1.5897052218     1.6640095297     0.5062466072
   62      C       7.5712325464     1.6474955583    -2.5762926308
   63      C       7.9690068070     2.1280736111     1.3974580374
   64      C       3.5887359035     3.3627781130    -3.2564677898
   65      C       3.7422470402     2.0487771427    -3.7606828044
   66      C       8.0419998537     3.2643095421     0.4951626732
   67      C       2.9274771549    -0.7662747420    -1.7814147781
   68      C       5.6078071272    -1.2551297495    -2.2252086727
   69      C       2.0029838962     1.2540457252    -2.2371212894
   70      C       4.7596476557    -1.4650763494     1.1107592432
   71      C       6.4069150096     3.6064945676     2.0452926552
   72      C       6.8651436955    -0.5902414678    -2.1122780442
   73      C       8.1700773064     3.0356881672    -0.8846117406
   74      C       1.7628642317     0.3637680272    -0.0285402592
   75      C       6.2619923312     4.8622790362    -0.0470077023
   76      C       2.2871133190     1.7338990375     1.7315969256
   77      C       4.2449207965     5.0131056037    -1.1225353729
   78      C       6.9791752070     2.3503099321     2.3908479011
   79      C       7.0487574249     4.1445013740     0.9488110137
   80      C       5.0422113822    -0.6062654967     2.1912811817
   81      C       3.5399115518    -1.2984074687     0.4784473572
   82      C       2.6195893404     3.5651235016    -2.2452599561
   83      C       5.0165023206     3.8881044224     2.2716495504
   84      C       7.0448757245     2.8819413740    -2.8175104249
   85      C       2.9541708624     0.9830242929    -3.2497622616
   86      C       4.8842163744     3.9661743829    -3.2175153688
   87      C       2.5666915785    -0.3447575869     0.8850636216
   88      C       1.6571448977     2.7158668508    -0.4005665301
   89      O      -8.6102865112     0.7593285895    -4.8193736425
   90      C      -7.5193222735     1.6985979980    -4.8881632519
   91      H      -7.0762337355     1.7440191122    -5.8915791527
   92      H      -6.7327605413     1.6495771800    -4.1253450555
   93      H      -7.8971264752     2.7114707365    -4.7052649175
   94      O      -9.8310497313     1.8261089220    -3.1962489145
   95      C      -9.6034394602     0.8226265708    -3.9188523571
   96      C     -10.4147194635    -0.5023315570    -3.8866542875
   97      H     -10.4535122492    -0.6378175332    -4.9742367764
   98      H     -11.4036981758    -0.4058890143    -3.4223818002
   99      C      -9.7584082181    -1.6986600404    -3.2146872429
  100      H     -10.1573333073    -2.6504843937    -3.5865530434
  101      H      -8.7152363033    -1.7682169052    -3.5482606211
  102      C      -9.7249482431    -1.6026356741    -1.7204152626
  103      H      -9.8572836036    -0.5633223048    -1.3961205313
  104      H     -10.5458955414    -2.0800584729    -1.1702998159
  105      C      -8.4007034905    -2.2825255112    -1.0636454059
  106      C      -8.3785767982    -3.7850768367    -1.0790701881
  107      C      -7.9253827261    -4.4627808485    -2.2311936213
  108      H      -7.7027918334    -3.7898608652    -3.0546485323
  109      C      -7.9357684980    -5.8413365304    -2.3572982121
  110      H      -7.5458852262    -6.3379612032    -3.2406242949
  111      C      -8.5370759727    -6.5937212376    -1.3482924771
  112      H      -8.3985620238    -7.6703419031    -1.3787199071
  113      C      -8.9921803110    -5.9457465737    -0.2184965325
  114      H      -9.4590812913    -6.5676242845     0.5402956573
  115      C      -8.9543649520    -4.6024950808    -0.1161665500
  116      H      -9.3603542239    -4.1797640195     0.7971483797
  117      C      -4.9795270410    -2.3922563844     3.2003750956
  118      C      -3.4515485355    -2.8358899091     1.3932345414
  119      C      -1.3683446807     1.1990109115     1.2854102996
  120      C      -7.6193547008     1.8648224775     2.3706621996
  121      C      -3.2366800810     2.4179653923    -1.3426821276
  122      C      -4.7301802365    -3.0095501509     1.9835531789
  123      C      -5.9136754578     3.4625653371     0.8104708414
  124      C      -2.0886159129    -0.2238557989     3.1426191399
  125      C      -4.8584605711    -1.2377803682    -2.0064840381
  126      C      -7.8253747967     1.9604458631     0.9625652966
  127      C      -7.0804957867    -1.5305008197    -1.2237687398
  128      C      -5.5836035790    -0.0296832335    -2.2556264296
  129      C      -6.7957238626     2.2798478635    -1.1421730045
  130      C      -4.7154945236     3.6588390805     0.1244584023
  131      C      -5.0305209449    -2.7706679025    -0.2475567983
  132      C      -2.5302772342     3.0383115554     0.8785750966
  133      C      -7.6667572866    -1.6384513252     0.0884797664
  134      C      -8.0972709968    -0.3917298961     0.7722638140
  135      C      -2.2974093379     2.3967014256    -0.3264502077
  136      C      -4.5943461184     1.9050109604     4.1004873243
  137      C      -2.6034151660     2.1225166924     3.1572772737
  138      C      -2.6619649994     0.8635208276     3.7632107102
  139      C      -2.6682123440    -1.4737003312     3.2652144998
  140      C      -7.9629875585    -0.5625115802     2.1314722508
  141      C      -5.6372200693    -2.0996202629    -1.2933910288
  142      C      -2.4178900324    -2.1044950226     1.9923410585
  143      C      -6.9779807209     2.8050589524     0.1311442182
  144      C      -3.6376677526    -2.7350300793    -0.0344208554
  145      C      -4.8923253496     1.1988158229    -2.2664651497
  146      C      -6.7163611396     0.5590383028     3.9118186866
  147      C      -1.4230722963    -0.0645161671     1.9531244673
  148      C      -6.9130590479    -0.1340916842    -1.7414795325
  149      C      -4.6103237575    -0.5200140125     4.4061613272
  150      C      -5.4877091721     2.3527864405    -1.7224027291
  151      C      -3.4291592298    -1.1450790696    -1.8111327010
  152      C      -4.3539106008     3.6178279200     2.4037793870
  153      C      -5.7453175903     3.4663936112     2.1553860703
  154      C      -2.7827160035     0.0924170116    -1.8182463666
  155      C      -7.6837799489     0.5627094704     2.9302880606
  156      C      -8.0522762888     0.8766968342     0.1626810829
  157      C      -6.0162885090     1.8173982361     3.9172583738
  158      C      -6.9656918973    -2.3516893774     1.2206214540
  159      C      -1.7554730754    -1.1493606036    -0.2186069320
  160      C      -7.4715017312     1.0574767910    -1.1426562377
  161      C      -3.4978252611     1.2899980838    -2.1378638338
  162      C      -5.9373242908    -0.6213584657     4.1663595621
  163      C      -1.4701435994     1.3212242099    -0.0897940088
  164      C      -3.9452312754    -1.6096405916     3.8168601238
  165      C      -1.9477015110     2.3156175783     1.9265812713
  166      C      -2.7710142492    -1.9067807200    -0.8379976742
  167      C      -1.7715143934     0.1184612445    -0.8381514725
  168      C      -5.6630731041    -2.9054011246     0.9542296739
  169      C      -7.1686766095    -1.6978439160     2.3914811036
  170      C      -3.8102188197     2.7970423139     3.3882082752
  171      C      -1.6214577635    -1.2125955985     1.1866084364
  172      C      -4.4929842866     3.0618305356    -1.1161817518
  173      C      -6.5671911566     2.6241720420     2.9877992306
  174      C      -3.7507367459     3.6922471079     1.0971543126
  175      C      -6.2226837502    -1.7597818433     3.4346470555
  176      C      -3.8945824454     0.6971271237     4.3518305937
 ----------------------------------------------------------------

    9   -5804.2366942362      9.28E-06 Convergence criterion met
 Total energy in the final basis set = -5804.2366942362

                    Orbital Energies (a.u.)
 --------------------------------------------------------------

 Alpha MOs
 -- Occupied --
-19.207 -19.202 -19.133 -19.132 -10.324 -10.324 -10.250 -10.250
-10.246 -10.244 -10.240 -10.240 -10.238 -10.232 -10.230 -10.230
-10.225 -10.224 -10.224 -10.224 -10.223 -10.222 -10.222 -10.221
-10.220 -10.220 -10.220 -10.220 -10.220 -10.219 -10.219 -10.219
-10.219 -10.219 -10.218 -10.218 -10.218 -10.217 -10.217 -10.217
-10.217 -10.217 -10.216 -10.216 -10.216 -10.216 -10.216 -10.216
-10.216 -10.216 -10.216 -10.216 -10.215 -10.215 -10.215 -10.215
-10.215 -10.215 -10.214 -10.214 -10.214 -10.214 -10.214 -10.214
-10.214 -10.214 -10.214 -10.213 -10.213 -10.213 -10.213 -10.213
-10.213 -10.213 -10.213 -10.213 -10.213 -10.213 -10.212 -10.212
-10.212 -10.212 -10.212 -10.212 -10.212 -10.212 -10.212 -10.212
-10.212 -10.211 -10.211 -10.211 -10.211 -10.211 -10.211 -10.211
-10.211 -10.211 -10.211 -10.210 -10.210 -10.210 -10.210 -10.210
-10.210 -10.210 -10.210 -10.210 -10.210 -10.209 -10.209 -10.209
-10.209 -10.209 -10.209 -10.209 -10.209 -10.209 -10.209 -10.209
-10.209 -10.208 -10.208 -10.208 -10.208 -10.208 -10.207 -10.207
-10.206 -10.206 -10.206 -10.206 -10.206 -10.206 -10.205 -10.205
-10.204 -10.203 -10.202 -10.199 -10.198 -10.197 -10.197 -10.197
-10.195 -10.194 -10.194 -10.192  -1.107  -1.096  -1.000  -0.993
 -0.983  -0.982  -0.968  -0.964  -0.963  -0.962  -0.959  -0.958
 -0.935  -0.933  -0.926  -0.926  -0.924  -0.924  -0.922  -0.920
 -0.920  -0.919  -0.898  -0.891  -0.890  -0.889  -0.888  -0.886
 -0.878  -0.876  -0.862  -0.855  -0.841  -0.841  -0.837  -0.837
 -0.835  -0.833  -0.823  -0.822  -0.812  -0.812  -0.799  -0.797
 -0.795  -0.794  -0.793  -0.792  -0.790  -0.788  -0.784  -0.781
 -0.772  -0.770  -0.768  -0.767  -0.767  -0.765  -0.763  -0.763
 -0.757  -0.751  -0.749  -0.747  -0.734  -0.734  -0.719  -0.715
 -0.714  -0.713  -0.712  -0.711  -0.710  -0.709  -0.708  -0.708
 -0.707  -0.707  -0.705  -0.704  -0.702  -0.702  -0.674  -0.671
 -0.660  -0.658  -0.655  -0.654  -0.649  -0.648  -0.635  -0.631
 -0.629  -0.626  -0.625  -0.623  -0.622  -0.620  -0.619  -0.617
 -0.614  -0.614  -0.613  -0.612  -0.611  -0.611  -0.608  -0.608
 -0.604  -0.604  -0.602  -0.601  -0.582  -0.576  -0.569  -0.569
 -0.562  -0.561  -0.560  -0.557  -0.556  -0.555  -0.552  -0.552
 -0.538  -0.537  -0.534  -0.531  -0.529  -0.528  -0.526  -0.524
 -0.522  -0.521  -0.517  -0.516  -0.514  -0.514  -0.513  -0.511
 -0.507  -0.507  -0.503  -0.497  -0.494  -0.492  -0.487  -0.485
 -0.485  -0.483  -0.482  -0.480  -0.479  -0.477  -0.476  -0.473
 -0.472  -0.471  -0.471  -0.469  -0.468  -0.468  -0.466  -0.465
 -0.465  -0.463  -0.462  -0.462  -0.461  -0.460  -0.458  -0.457
 -0.457  -0.456  -0.453  -0.452  -0.452  -0.448  -0.445  -0.444
 -0.443  -0.442  -0.439  -0.439  -0.438  -0.436  -0.435  -0.432
 -0.431  -0.430  -0.429  -0.427  -0.426  -0.425  -0.424  -0.424
 -0.422  -0.421  -0.421  -0.420  -0.420  -0.419  -0.418  -0.417
 -0.416  -0.416  -0.415  -0.415  -0.415  -0.413  -0.413  -0.412
 -0.412  -0.409  -0.408  -0.408  -0.400  -0.399  -0.399  -0.397
 -0.393  -0.393  -0.391  -0.391  -0.390  -0.386  -0.384  -0.383
 -0.382  -0.380  -0.376  -0.371  -0.371  -0.369  -0.368  -0.366
 -0.365  -0.364  -0.363  -0.363  -0.362  -0.360  -0.359  -0.357
 -0.356  -0.356  -0.353  -0.353  -0.353  -0.351  -0.351  -0.350
 -0.349  -0.348  -0.347  -0.346  -0.346  -0.344  -0.343  -0.342
 -0.342  -0.340  -0.340  -0.338  -0.337  -0.336  -0.334  -0.333
 -0.332  -0.331  -0.329  -0.328  -0.328  -0.326  -0.325  -0.323
 -0.311  -0.308  -0.300  -0.296  -0.289  -0.288  -0.271  -0.271
 -0.269  -0.267  -0.266  -0.266  -0.264  -0.263  -0.262  -0.262
 -0.261  -0.261  -0.260  -0.257  -0.257  -0.256  -0.255  -0.253
 -0.251  -0.250  -0.246  -0.244  -0.220  -0.220  -0.214  -0.209
 -0.207  -0.206  -0.203  -0.203  -0.201  -0.195

          Ground-State Mulliken Net Atomic Charges

     Atom                 Charge (a.u.)
  ----------------------------------------
      1 O                    -0.436794
      2 C                    -0.092658
      3 H                     0.126452
      4 H                     0.127856
      5 H                     0.130503
      6 O                    -0.490917
      7 C                     0.594626
      8 C                    -0.258587
      9 H                     0.132190
     10 H                     0.136688
     11 C                    -0.192603
     12 H                     0.100032
     13 H                     0.128284
     14 C                    -0.172612
     15 H                     0.109794
     16 H                     0.114989
     17 C                    -0.011626
     18 C                     0.117196
     19 C                    -0.104447
     20 H                     0.096515
     21 C                    -0.091489
     22 H                     0.093571
     23 C                    -0.089023
     24 H                     0.090975
     25 C                    -0.093013
     26 H                     0.099669
     27 C                    -0.114892
     28 H                     0.092642
     29 C                    -0.009586
     30 C                     0.036401
     31 C                    -0.012562
     32 C                    -0.013648
     33 C                     0.001795
     34 C                     0.005983
     35 C                    -0.033519
     36 C                     0.024319
     37 C                     0.008531
     38 C                    -0.027776
     39 C                    -0.090492
     40 C                     0.020885
     41 C                     0.035873
     42 C                     0.011653
     43 C                    -0.010281
     44 C                     0.031507
     45 C                    -0.083929
     46 C                     0.027993
     47 C                    -0.030405
     48 C                     0.024423
     49 C                     0.008770
     50 C                    -0.025569
     51 C                    -0.009661
     52 C                    -0.003740
     53 C                     0.014030
     54 C                    -0.014795
     55 C                     0.032802
     56 C                     0.000461
     57 C                    -0.032062
     58 C                     0.004318
     59 C                    -0.003715
     60 C                     0.054209
     61 C                    -0.008089
     62 C                    -0.022732
     63 C                    -0.032275
     64 C                    -0.004633
     65 C                    -0.004717
     66 C                    -0.032754
     67 C                    -0.003077
     68 C                    -0.023883
     69 C                     0.001166
     70 C                     0.044449
     71 C                     0.026956
     72 C                    -0.020965
     73 C                     0.033836
     74 C                     0.002509
     75 C                     0.004970
     76 C                    -0.021184
     77 C                     0.015438
     78 C                     0.007661
     79 C                     0.008481
     80 C                    -0.021492
     81 C                     0.027497
     82 C                    -0.016279
     83 C                    -0.038592
     84 C                     0.009860
     85 C                     0.013570
     86 C                    -0.026193
     87 C                    -0.011869
     88 C                     0.009696
     89 O                    -0.449839
     90 C                    -0.101033
     91 H                     0.126426
     92 H                     0.133364
     93 H                     0.135728
     94 O                    -0.494883
     95 C                     0.591636
     96 C                    -0.239125
     97 H                     0.126259
     98 H                     0.129800
     99 C                    -0.188368
    100 H                     0.117961
    101 H                     0.119753
    102 C                    -0.189374
    103 H                     0.132189
    104 H                     0.113129
    105 C                    -0.023245
    106 C                     0.104574
    107 C                    -0.109292
    108 H                     0.082387
    109 C                    -0.088775
    110 H                     0.092135
    111 C                    -0.090156
    112 H                     0.090205
    113 C                    -0.078763
    114 H                     0.089142
    115 C                    -0.107763
    116 H                     0.083266
    117 C                    -0.014281
    118 C                    -0.004174
    119 C                    -0.000268
    120 C                    -0.019996
    121 C                    -0.000871
    122 C                    -0.015350
    123 C                     0.027018
    124 C                     0.014674
    125 C                    -0.001146
    126 C                    -0.017166
    127 C                    -0.085123
    128 C                    -0.002133
    129 C                     0.004618
    130 C                     0.008688
    131 C                     0.036843
    132 C                     0.001556
    133 C                    -0.105664
    134 C                     0.059608
    135 C                     0.035831
    136 C                    -0.004755
    137 C                    -0.005728
    138 C                     0.008698
    139 C                    -0.015192
    140 C                    -0.009263
    141 C                     0.034391
    142 C                    -0.020243
    143 C                    -0.013409
    144 C                    -0.017395
    145 C                    -0.002250
    146 C                    -0.005702
    147 C                     0.023910
    148 C                     0.033172
    149 C                     0.021369
    150 C                     0.002203
    151 C                     0.011398
    152 C                    -0.037743
    153 C                     0.012728
    154 C                     0.009403
    155 C                     0.000530
    156 C                     0.005990
    157 C                    -0.001186
    158 C                     0.027875
    159 C                    -0.004858
    160 C                     0.014519
    161 C                    -0.043902
    162 C                    -0.002435
    163 C                    -0.014305
    164 C                     0.002708
    165 C                    -0.011279
    166 C                    -0.032682
    167 C                    -0.004769
    168 C                     0.008580
    169 C                     0.021810
    170 C                     0.022132
    171 C                     0.002791
    172 C                    -0.014841
    173 C                    -0.007488
    174 C                    -0.017429
    175 C                    -0.003192
    176 C                    -0.007054
  ----------------------------------------
  Sum of atomic charges =     0.000000

                    Cartesian Multipole Moments
 -----------------------------------------------------------------
    Charge (ESU x 10^10)
                 0.0000
    Dipole Moment (Debye)
         X       0.0035      Y      -6.2567      Z       0.8123
       Tot       6.3092
    Quadrupole Moments (Debye-Ang)
        XX    -789.4497     XY       9.5678     YY    -784.5036
        XZ      40.0145     YZ     -13.1200     ZZ    -805.3694

 Total job time:  855.66s(wall), 7251.94s(cpu)
        *  Thank you very much for using Q-Chem.  Have a nice day.  *
