 Q-Chem 4.4, Q-Chem, Inc., Pleasanton, CA (2016)
 Q-Chem 4.4.2 for Intel X86 Linux

User input:
--------------------------------------------------------------
$comment
SP
$end

$rem
MEM_STATIC 5000
MEM_TOTAL 20000
JOBTYPE SP
EXCHANGE B3LYP
BASIS 6-31g(d,p)
$end

$molecule
0 1
O         -24.126000      5.409000     -2.171000
C         -24.983000      6.199000     -2.980000
H         -24.396000      7.010000     -3.426000
H         -25.795000      6.601000     -2.361000
H         -25.415000      5.558000     -3.759000
O         -25.685000      3.854000     -1.845000
C         -24.574000      4.336000     -1.548000
C         -23.717000      3.735000     -0.487000
H         -23.650000      4.453000      0.341000
H         -22.734000      3.794000     -0.971000
C         -24.066000      2.277000     -0.147000
H         -25.109000      2.101000      0.144000
H         -24.073000      1.726000     -1.096000
C         -22.923000      1.696000      0.769000
H         -22.000000      1.793000      0.184000
H         -22.843000      2.171000      1.755000
C         -23.222000      0.131000      1.050000
C         -24.573000     -0.144000      1.643000
C         -25.689000     -0.662000      0.882000
H         -25.583000     -0.957000     -0.158000
C         -26.851000     -0.926000      1.559000
H         -27.732000     -1.311000      1.053000
C         -27.003000     -0.540000      2.863000
H         -28.000000     -0.565000      3.293000
C         -25.943000     -0.138000      3.659000
H         -26.087000      0.238000      4.668000
C         -24.712000      0.096000      3.052000
H         -23.918000      0.530000      3.652000
C         -21.213000     -4.531000      3.003000
C         -22.664000     -5.323000      1.262000
C         -19.223000     -6.557000     -1.469000
C         -17.902000     -1.131000      1.403000
C         -19.333000     -3.659000     -3.471000
C         -22.408000     -4.435000      2.251000
C         -17.139000     -1.646000     -1.288000
C         -19.454000     -6.901000      0.909000
C         -22.832000     -2.523000     -1.693000
C         -18.496000     -0.424000      0.324000
C         -22.667000     -0.853000      0.032000
C         -21.872000     -1.570000     -2.105000
C         -19.270000     -0.569000     -1.759000
C         -17.454000     -2.574000     -2.291000
C         -23.420000     -3.320000      0.543000
C         -17.713000     -5.046000     -2.327000
C         -22.106000     -0.756000      1.427000
C         -20.658000     -0.356000      1.560000
C         -18.892000     -4.931000     -3.047000
C         -17.103000     -4.398000      1.623000
C         -17.375000     -5.876000     -0.005000
C         -18.172000     -6.274000      1.080000
C         -20.459000     -6.392000      1.702000
C         -20.075000     -1.101000      2.602000
C         -23.223000     -2.229000     -0.383000
C         -21.668000     -6.284000      0.969000
C         -18.142000     -0.692000     -0.994000
C         -23.239000     -4.653000      0.176000
C         -20.805000     -2.015000     -2.923000
C         -18.255000     -2.760000      2.949000
C         -19.966000     -6.973000     -0.354000
C         -21.668000     -0.593000     -1.111000
C         -18.987000     -5.040000      3.010000
C         -19.544000     -1.512000     -2.754000
C         -22.678000     -3.861000     -2.090000
C         -16.499000     -3.725000     -0.592000
C         -16.510000     -2.345000     -0.186000
C         -21.605000     -4.310000     -2.894000
C         -18.672000     -1.450000      2.581000
C         -19.859000     -0.025000      0.426000
C         -17.195000     -3.117000      2.068000
C         -22.209000     -1.973000      2.281000
C         -21.929000     -5.913000     -1.384000
C         -20.318000     -0.207000     -0.891000
C         -20.678000     -3.341000     -3.377000
C         -19.176000     -3.713000      3.399000
C         -19.826000     -5.822000     -2.474000
C         -20.262000     -5.508000      2.767000
C         -17.882000     -6.071000     -1.344000
C         -22.855000     -4.896000     -1.174000
C         -21.165000     -5.563000     -2.439000
C         -22.867000     -3.147000      1.843000
C         -20.989000     -2.108000      2.983000
C         -16.704000     -4.728000      0.371000
C         -21.294000     -6.562000     -0.284000
C         -18.642000     -2.485000     -3.045000
C         -16.926000     -2.116000      1.170000
C         -17.046000     -3.841000     -1.895000
C         -20.536000     -3.368000      3.449000
C         -17.995000     -5.344000      2.110000
O         -21.300000    -20.861000      6.005000
C         -21.736000    -22.240000      6.108000
H         -22.563000    -22.360000      5.398000
H         -21.917000    -22.448000      7.170000
H         -20.971000    -22.856000      5.618000
O         -19.522000    -21.093000      7.441000
C         -20.135000    -20.411000      6.626000
C         -19.691000    -19.016000      6.116000
H         -19.440000    -19.289000      5.084000
H         -18.736000    -18.692000      6.547000
C         -20.784000    -17.844000      6.302000
H         -21.791000    -18.000000      5.896000
H         -20.802000    -17.658000      7.383000
C         -20.057000    -16.521000      5.886000
H         -19.135000    -16.442000      6.474000
H         -19.730000    -16.688000      4.852000
C         -20.997000    -15.294000      6.030000
C         -21.414000    -15.095000      7.431000
C         -20.584000    -14.366000      8.235000
H         -19.608000    -14.113000      7.830000
C         -20.965000    -14.002000      9.527000
H         -20.324000    -13.320000     10.079000
C         -22.238000    -14.237000     10.017000
H         -22.478000    -13.927000     11.030000
C         -23.066000    -15.028000      9.226000
H         -24.082000    -15.219000      9.559000
C         -22.645000    -15.441000      7.958000
H         -23.371000    -15.973000      7.350000
C         -25.510000    -12.976000      3.936000
C         -24.268000    -11.028000      4.684000
C         -23.085000     -9.728000      0.544000
C         -22.805000    -15.994000      0.921000
C         -19.923000    -11.130000      0.550000
C         -24.617000    -12.387000      4.832000
C         -21.030000    -14.449000     -0.622000
C         -25.184000    -10.511000      1.312000
C         -20.288000    -11.876000      4.542000
C         -21.464000    -15.926000      1.278000
C         -20.875000    -14.109000      5.080000
C         -19.504000    -12.749000      3.717000
C         -19.669000    -14.477000      1.482000
C         -20.637000    -13.109000     -0.702000
C         -22.496000    -12.215000      5.549000
C         -21.890000    -10.961000     -0.883000
C         -22.026000    -15.053000      4.944000
C         -22.152000    -15.889000      3.655000
C         -20.984000    -10.373000      0.017000
C         -24.953000    -13.498000     -0.351000
C         -24.272000    -11.400000     -0.723000
C         -25.253000    -11.376000      0.257000
C         -25.548000    -10.904000      2.576000
C         -23.490000    -15.911000      3.241000
C         -21.164000    -12.677000      5.337000
C         -24.713000    -10.318000      3.530000
C         -20.533000    -15.119000      0.530000
C         -22.924000    -10.958000      5.095000
C         -19.210000    -12.313000      2.381000
C         -24.941000    -15.252000      1.367000
C         -24.086000     -9.616000      1.527000
C         -19.906000    -14.066000      3.919000
C         -26.121000    -13.194000      1.750000
C         -19.275000    -13.245000      1.302000
C         -20.630000    -10.609000      4.092000
C         -22.805000    -13.188000     -1.401000
C         -22.376000    -14.469000     -0.928000
C         -20.351000    -10.155000      2.791000
C         -23.809000    -15.998000      1.891000
C         -21.110000    -15.817000      2.650000
C         -24.518000    -14.771000      0.103000
C         -23.360000    -14.447000      5.021000
C         -22.433000     -9.472000      3.231000
C         -19.970000    -14.956000      2.793000
C         -19.649000    -11.046000      1.904000
C         -25.677000    -14.416000      2.194000
C         -21.696000     -9.562000      0.864000
C         -26.025000    -12.282000      2.805000
C         -23.171000    -10.491000     -0.677000
C         -21.952000    -10.156000      4.394000
C         -21.416000     -9.416000      2.231000
C         -23.534000    -13.094000      5.356000
C         -24.197000    -15.020000      4.043000
C         -24.059000    -12.706000     -1.069000
C         -23.818000     -9.500000      2.876000
C         -19.785000    -12.459000      0.243000
C         -23.244000    -15.249000     -0.164000
C         -21.717000    -12.335000     -1.230000
C         -25.303000    -14.285000      3.545000
C         -25.726000    -12.670000      0.431000
$end

--------------------------------------------------------------

             Standard Nuclear Orientation (Angstroms)
    I     Atom           X                Y                Z
 ----------------------------------------------------------------
    1      O     -13.9120510152    -2.6623132032    -0.7362877452
    2      C     -14.8865271980    -3.2897818558    -1.5546454049
    3      H     -15.8034031581    -2.6897554260    -1.5320012590
    4      H     -15.0752457668    -4.3034527861    -1.1791916169
    5      H     -14.4916868886    -3.3578564071    -2.5763170672
    6      O     -12.2996235753    -4.0423198112    -1.4074371421
    7      C     -12.6957503946    -3.1597206246    -0.6206994355
    8      C     -11.8287383450    -2.6387482539     0.4739461212
    9      H     -12.2759150968    -2.9376389692     1.4311787434
   10      H     -12.0450126149    -1.5653691605     0.4024705165
   11      C     -10.3284264869    -2.9032108099     0.2683035066
   12      H     -10.0552317527    -3.9544838635     0.1143697420
   13      H     -10.0773585692    -2.5280085774    -0.7319160620
   14      C      -9.5282664177    -2.0688925369     1.3391549823
   15      H      -9.8091155769    -1.0226130808     1.1659901780
   16      H      -9.6972838202    -2.3789888289     2.3781421850
   17      C      -7.9437385735    -2.2541164800     1.0698027931
   18      C      -7.4820189896    -3.6820394249     1.0517448558
   19      C      -7.1863653832    -4.4106893369    -0.1625694572
   20      H      -7.2088347033    -3.9302616658    -1.1365024028
   21      C      -6.7143828816    -5.6910747922    -0.0356261474
   22      H      -6.4762998387    -6.3006732265    -0.9028794054
   23      C      -6.7012555197    -6.3132513096     1.1830781045
   24      H      -6.5329446330    -7.3858507860     1.2102038943
   25      C      -6.8746837333    -5.6346954722     2.3781950990
   26      H      -6.9379788626    -6.1500853796     3.3324277593
   27      C      -7.2989375021    -4.3094431626     2.3304347005
   28      H      -7.5548579535    -3.8183687195     3.2643204610
   29      C      -2.9549653357    -0.4645798006     2.2921914611
   30      C      -2.6758806641    -1.1477926047     0.0076613102
   31      C      -2.3566801408     3.1273194501    -1.5553888952
   32      C      -6.7367797856     2.7564057071     2.9292572555
   33      C      -5.7091061227     3.3422269562    -2.6200779575
   34      C      -3.2424804081    -1.3438435215     1.2212220908
   35      C      -7.0418931824     4.4268557110     0.6477275933
   36      C      -1.3312598609     2.1617370908     0.4049031639
   37      C      -6.2107285848    -0.6584506304    -1.9584626965
   38      C      -7.7155094525     2.4747047074     1.9394801160
   39      C      -7.3094357798    -1.2782769227     0.0910269637
   40      C      -7.2607553786     0.2621271076    -1.7359017821
   41      C      -8.1679092480     2.4608115407    -0.2409169590
   42      C      -6.4399640676     4.5771759584    -0.6098507001
   43      C      -4.7864067607    -1.8563602012    -0.3719668719
   44      C      -4.0808626647     4.6436913243    -1.3904769083
   45      C      -7.0071824387    -1.2290675233     1.5662816375
   46      C      -7.3791089007     0.0331491852     2.3030805842
   47      C      -4.3775507608     3.7664711866    -2.4220422255
   48      C      -3.5632081642     3.8229084193     2.5405348242
   49      C      -2.6178638248     4.2873347448     0.5913082421
   50      C      -1.9060534789     3.2287826652     1.1775091687
   51      C      -1.5679680305     0.8968204610     0.8967467998
   52      C      -6.3745834679     0.3214277537     3.2456844892
   53      C      -6.1032309043    -1.4951390434    -0.8431987151
   54      C      -1.8611625451    -0.0032983285    -0.1589317220
   55      C      -7.8494891645     3.2763215055     0.8108863247
   56      C      -3.6216225913    -1.4049503306    -0.9915199102
   57      C      -7.0937389942     1.5856684396    -2.2112772861
   58      C      -4.7219247213     2.1076767932     3.7586400779
   59      C      -1.6199677911     2.1114642696    -0.9279949472
   60      C      -7.9100265386     0.0050857975    -0.5125630204
   61      C      -2.5091067461     1.6764319721     2.9490664166
   62      C      -7.5500974095     2.6486242668    -1.4808302270
   63      C      -5.0493682585    -0.2217199503    -2.6157887233
   64      C      -4.8631183895     5.0436897504     0.9455751545
   65      C      -6.0648007518     4.7326868314     1.6726196403
   66      C      -4.8745683338     1.1032584097    -3.0775498433
   67      C      -6.0739990676     1.6826968558     3.6294115404
   68      C      -8.0411268016     1.1179118353     1.6558246134
   69      C      -4.6572789023     3.4350547574     3.2476619394
   70      C      -5.5926016107    -1.4632874990     1.9726264222
   71      C      -2.8956187941     0.4905064048    -2.2633148036
   72      C      -8.2413523556     1.1483813143     0.2639642259
   73      C      -5.9599196014     2.0146576105    -2.9260799692
   74      C      -3.6615958195     1.2109431147     3.5839365287
   75      C      -3.3404878091     2.8092289837    -2.4745188790
   76      C      -2.1074874500     0.6207867161     2.1565936824
   77      C      -2.8111270288     4.2817815697    -0.8406880903
   78      C      -3.7894067916    -0.5676313473    -2.1315858655
   79      C      -3.5521481296     1.5139767970    -2.8470087199
   80      C      -4.5843368799    -1.7921670913     1.0354367689
   81      C      -5.2828130476    -0.5393281964     2.9972040197
   82      C      -3.6195494867     4.6521146892     1.4705593023
   83      C      -1.9670513256     0.7966115542    -1.2248119900
   84      C      -6.7215006805     3.7059657081    -1.6820031311
   85      C      -5.8812602701     3.8651203967     2.8030506966
   86      C      -5.1206999702     4.9792627257    -0.4472546584
   87      C      -3.9507479623    -0.1192670420     3.2403423243
   88      C      -2.4993704655     2.9401567521     2.4111213589
   89      O      13.5404725482     0.4164755199     0.6150678699
   90      C      14.8979431056     0.1399613155     0.1870963985
   91      H      14.8221428127    -0.3831032411    -0.7736776568
   92      H      15.4094037254    -0.3575426929     1.0206231204
   93      H      15.3298040989     1.0924639782    -0.1460938776
   94      O      14.1458167461     1.6299480880     2.4693188585
   95      C      13.2681814759     1.2456825276     1.7030197578
   96      C      11.7768308946     1.6631072434     1.7729558022
   97      H      11.7328406877     2.2738674621     0.8632356161
   98      H      11.5738434287     2.3741917080     2.5828428147
   99      C      10.7310264351     0.4381262164     1.8653869431
  100      H      10.7815950433    -0.3500852534     1.1042125251
  101      H      10.8679857802     0.0394677712     2.8782021197
  102      C       9.3304229531     1.0976573604     2.1004242941
  103      H       9.4081067202     1.7550800608     2.9743977635
  104      H       9.1829875706     1.7674463783     1.2439083984
  105      C       8.2168290633     0.0231573932     2.2238077173
  106      C       8.4421782713    -0.8567071365     3.3862822950
  107      C       7.9627380674    -0.4352192358     4.5942732057
  108      H       7.5840163158     0.5820467156     4.6427481366
  109      C       7.9978472635    -1.2649725725     5.7155215033
  110      H       7.4936983221    -0.9308310052     6.6182353327
  111      C       8.3898276664    -2.5904835533     5.6432304005
  112      H       8.3926848973    -3.1890784000     6.5496216216
  113      C       8.9323171255    -3.0069794146     4.4311320611
  114      H       9.2315580151    -4.0451624782     4.3204215536
  115      C       8.9502877035    -2.1419074251     3.3325140605
  116      H       9.2963060658    -2.5549466178     2.3894160177
  117      C       5.4775937225    -3.7803115236    -0.6319483903
  118      C       3.8078686532    -3.1011778624     0.9951864115
  119      C       1.3369109451    -0.7739170709    -1.9556294441
  120      C       7.4348647509     0.1149891722    -3.1836726329
  121      C       2.6185637819     2.3501945772    -1.2065123528
  122      C       5.1576187932    -3.3136775795     0.6436121950
  123      C       5.4737265845     2.1029600152    -3.5306712204
  124      C       2.3499390162    -2.8987275656    -2.2157611202
  125      C       4.5007141016     0.7707979291     2.0475345740
  126      C       7.4477541457     1.2424889631    -2.3719263148
  127      C       6.8045578524     0.3109173505     1.7295474275
  128      C       5.0805667530     1.8833362349     1.3522364935
  129      C       6.0863637439     2.6797277674    -1.1701764267
  130      C       4.1610848882     2.3362856502    -3.1076110294
  131      C       5.1606862864    -1.5887634529     2.0813103019
  132      C       2.0780102362     0.9664962381    -3.1415368412
  133      C       7.6902242630    -0.6071663317     0.9503488895
  134      C       8.1172814446    -0.1959903600    -0.4726231707
  135      C       1.7599042309     1.4440803837    -1.8580642263
  136      C       4.7187888274    -1.7709637771    -4.4198025011
  137      C       2.5905590557    -1.2621485777    -3.9555890464
  138      C       2.8717179137    -2.5085681409    -3.4163998691
  139      C       3.1006730824    -3.6123739534    -1.3147904242
  140      C       8.0437484847    -1.3072517514    -1.3222201479
  141      C       5.5151596817    -0.2168232113     2.2386017044
  142      C       2.8015653184    -3.2189215751    -0.0084724033
  143      C       6.4401805903     2.2652073443    -2.4998194081
  144      C       3.8344987707    -1.9890697492     1.8569656068
  145      C       4.2691063606     2.5502845411     0.3733902398
  146      C       6.8961963610    -2.1204578563    -3.3404812694
  147      C       1.5351540408    -2.0506087202    -1.3974250840
  148      C       6.4068792180     1.5982590267     1.0415546134
  149      C       5.0618996055    -3.5987148474    -2.8665987093
  150      C       4.8479130131     2.9602115760    -0.8651704915
  151      C       3.1644615558     0.4484060182     1.8597964864
  152      C       4.0752055843     0.5502547335    -4.5210410098
  153      C       5.4298589473     0.9480596637    -4.2856763915
  154      C       2.3462571825     1.0875226011     0.9118357293
  155      C       7.7403420050    -1.1462573384    -2.6690146041
  156      C       7.7358408730     1.1042762320    -0.9871937491
  157      C       6.0601455799    -1.3621884762    -4.1972383170
  158      C       7.1587682573    -1.9533731592     0.7095114100
  159      C       1.8612343717    -1.0883327837     0.7530301329
  160      C       6.9318167479     2.0197084104    -0.2276549858
  161      C       2.9268741414     2.1461367016     0.1271866783
  162      C       6.3513891495    -3.1843189469    -2.6362755593
  163      C       1.2443654841     0.3990198866    -1.1340874601
  164      C       4.4946410881    -3.9692615142    -1.6439385185
  165      C       1.7131522866    -0.3567033295    -3.2840801007
  166      C       2.8445899748    -0.9430290953     1.7843809926
  167      C       1.4970368022     0.1888069226     0.2298673466
  168      C       5.9654071803    -2.3899949312     1.3081438248
  169      C       7.4384966546    -2.3422760477    -0.6155880455
  170      C       3.7350078424    -0.7910310587    -4.5378314855
  171      C       1.8115163864    -2.2624585652    -0.0618261558
  172      C       3.7978111177     2.7409484410    -1.7863581417
  173      C       6.4150426972    -0.0242905895    -4.1140140362
  174      C       3.2879864723     1.4086946999    -3.7568676697
  175      C       6.6119349927    -3.2994814488    -1.2574748261
  176      C       4.1692564217    -2.8535096818    -3.7711535211
 ----------------------------------------------------------------

    9   -5804.2477526538      9.09E-06 Convergence criterion met
 Total energy in the final basis set = -5804.2477526538

                    Orbital Energies (a.u.)
 --------------------------------------------------------------

 Alpha MOs
 -- Occupied --
-19.195 -19.181 -19.133 -19.121 -10.318 -10.312 -10.248 -10.245
-10.242 -10.242 -10.238 -10.238 -10.237 -10.235 -10.233 -10.231
-10.231 -10.230 -10.229 -10.227 -10.227 -10.225 -10.225 -10.224
-10.224 -10.223 -10.222 -10.222 -10.221 -10.220 -10.220 -10.220
-10.220 -10.219 -10.219 -10.219 -10.219 -10.219 -10.218 -10.218
-10.218 -10.218 -10.218 -10.218 -10.218 -10.217 -10.217 -10.217
-10.217 -10.217 -10.217 -10.217 -10.217 -10.216 -10.216 -10.216
-10.216 -10.216 -10.216 -10.216 -10.215 -10.215 -10.215 -10.215
-10.215 -10.215 -10.215 -10.215 -10.215 -10.215 -10.215 -10.215
-10.214 -10.214 -10.214 -10.214 -10.214 -10.214 -10.214 -10.214
-10.214 -10.213 -10.213 -10.213 -10.213 -10.213 -10.213 -10.213
-10.212 -10.212 -10.212 -10.212 -10.211 -10.211 -10.211 -10.210
-10.210 -10.210 -10.210 -10.210 -10.210 -10.210 -10.209 -10.209
-10.209 -10.209 -10.209 -10.208 -10.208 -10.208 -10.208 -10.208
-10.208 -10.208 -10.207 -10.207 -10.207 -10.207 -10.207 -10.207
-10.207 -10.207 -10.206 -10.206 -10.206 -10.206 -10.206 -10.206
-10.205 -10.204 -10.204 -10.204 -10.204 -10.202 -10.202 -10.201
-10.201 -10.201 -10.200 -10.197 -10.197 -10.196 -10.196 -10.194
-10.194 -10.193 -10.191 -10.190  -1.109  -1.075  -0.999  -0.992
 -0.984  -0.981  -0.966  -0.964  -0.963  -0.961  -0.960  -0.959
 -0.935  -0.933  -0.929  -0.925  -0.925  -0.923  -0.922  -0.921
 -0.920  -0.919  -0.897  -0.897  -0.891  -0.888  -0.884  -0.883
 -0.876  -0.873  -0.858  -0.855  -0.841  -0.839  -0.838  -0.836
 -0.835  -0.834  -0.820  -0.818  -0.805  -0.801  -0.798  -0.796
 -0.795  -0.795  -0.793  -0.792  -0.791  -0.788  -0.783  -0.780
 -0.772  -0.769  -0.768  -0.767  -0.766  -0.764  -0.763  -0.761
 -0.755  -0.749  -0.747  -0.742  -0.733  -0.730  -0.715  -0.714
 -0.714  -0.713  -0.711  -0.711  -0.710  -0.709  -0.708  -0.707
 -0.706  -0.705  -0.705  -0.704  -0.703  -0.699  -0.672  -0.670
 -0.658  -0.657  -0.655  -0.654  -0.648  -0.646  -0.632  -0.630
 -0.628  -0.628  -0.623  -0.623  -0.621  -0.620  -0.617  -0.617
 -0.615  -0.613  -0.613  -0.610  -0.610  -0.609  -0.608  -0.607
 -0.606  -0.605  -0.602  -0.602  -0.566  -0.564  -0.561  -0.560
 -0.560  -0.559  -0.558  -0.557  -0.556  -0.554  -0.553  -0.552
 -0.539  -0.534  -0.532  -0.531  -0.528  -0.527  -0.525  -0.523
 -0.521  -0.520  -0.520  -0.518  -0.514  -0.514  -0.513  -0.513
 -0.508  -0.507  -0.498  -0.497  -0.494  -0.491  -0.488  -0.484
 -0.483  -0.481  -0.480  -0.479  -0.478  -0.477  -0.477  -0.473
 -0.472  -0.472  -0.470  -0.469  -0.469  -0.468  -0.465  -0.465
 -0.464  -0.464  -0.463  -0.463  -0.461  -0.460  -0.460  -0.458
 -0.456  -0.456  -0.453  -0.449  -0.449  -0.446  -0.444  -0.442
 -0.442  -0.440  -0.439  -0.438  -0.438  -0.437  -0.433  -0.432
 -0.429  -0.429  -0.428  -0.427  -0.427  -0.424  -0.423  -0.422
 -0.422  -0.420  -0.420  -0.419  -0.419  -0.418  -0.417  -0.417
 -0.416  -0.416  -0.415  -0.415  -0.414  -0.413  -0.412  -0.411
 -0.410  -0.409  -0.408  -0.406  -0.402  -0.399  -0.398  -0.395
 -0.395  -0.391  -0.390  -0.389  -0.388  -0.384  -0.383  -0.379
 -0.378  -0.377  -0.375  -0.371  -0.370  -0.369  -0.368  -0.366
 -0.365  -0.364  -0.363  -0.362  -0.361  -0.358  -0.357  -0.357
 -0.356  -0.356  -0.355  -0.354  -0.354  -0.353  -0.353  -0.349
 -0.347  -0.347  -0.347  -0.345  -0.345  -0.344  -0.343  -0.342
 -0.342  -0.340  -0.339  -0.339  -0.336  -0.336  -0.333  -0.332
 -0.331  -0.330  -0.328  -0.327  -0.326  -0.326  -0.324  -0.322
 -0.313  -0.310  -0.294  -0.292  -0.289  -0.283  -0.272  -0.270
 -0.268  -0.267  -0.265  -0.265  -0.263  -0.262  -0.261  -0.261
 -0.260  -0.259  -0.259  -0.258  -0.257  -0.256  -0.254  -0.253
 -0.251  -0.246  -0.244  -0.242  -0.222  -0.219  -0.210  -0.209
 -0.208  -0.208  -0.205  -0.204  -0.199  -0.195

          Ground-State Mulliken Net Atomic Charges

     Atom                 Charge (a.u.)
  ----------------------------------------
      1 O                    -0.446468
      2 C                    -0.080196
      3 H                     0.123503
      4 H                     0.126262
      5 H                     0.136741
      6 O                    -0.504061
      7 C                     0.585836
      8 C                    -0.262984
      9 H                     0.135761
     10 H                     0.129335
     11 C                    -0.180426
     12 H                     0.139570
     13 H                     0.116562
     14 C                    -0.178310
     15 H                     0.113409
     16 H                     0.109019
     17 C                    -0.002925
     18 C                     0.061522
     19 C                    -0.097125
     20 H                     0.100723
     21 C                    -0.080896
     22 H                     0.091661
     23 C                    -0.076370
     24 H                     0.085077
     25 C                    -0.087449
     26 H                     0.090391
     27 C                    -0.099089
     28 H                     0.090407
     29 C                     0.004365
     30 C                    -0.014931
     31 C                    -0.007754
     32 C                    -0.007664
     33 C                    -0.018957
     34 C                     0.012237
     35 C                    -0.021889
     36 C                    -0.023382
     37 C                    -0.000065
     38 C                    -0.007809
     39 C                    -0.086582
     40 C                    -0.017066
     41 C                    -0.003601
     42 C                     0.006681
     43 C                    -0.008268
     44 C                    -0.016603
     45 C                    -0.091912
     46 C                     0.041644
     47 C                     0.006412
     48 C                     0.020464
     49 C                    -0.001780
     50 C                    -0.015253
     51 C                     0.005875
     52 C                    -0.002805
     53 C                     0.024442
     54 C                     0.004343
     55 C                     0.024799
     56 C                    -0.006884
     57 C                     0.018807
     58 C                     0.005411
     59 C                     0.012519
     60 C                     0.028921
     61 C                    -0.020649
     62 C                     0.005722
     63 C                     0.015881
     64 C                    -0.013954
     65 C                    -0.029613
     66 C                    -0.024917
     67 C                    -0.032176
     68 C                    -0.014142
     69 C                    -0.000629
     70 C                     0.057207
     71 C                    -0.012166
     72 C                    -0.010693
     73 C                    -0.009978
     74 C                    -0.002787
     75 C                     0.036422
     76 C                     0.004546
     77 C                    -0.027978
     78 C                    -0.004831
     79 C                     0.004039
     80 C                    -0.004986
     81 C                     0.006025
     82 C                     0.005781
     83 C                     0.027043
     84 C                    -0.000341
     85 C                     0.011724
     86 C                     0.026656
     87 C                    -0.017398
     88 C                     0.029285
     89 O                    -0.486171
     90 C                    -0.072453
     91 H                     0.125523
     92 H                     0.137518
     93 H                     0.123273
     94 O                    -0.467187
     95 C                     0.568545
     96 C                    -0.242021
     97 H                     0.132305
     98 H                     0.129661
     99 C                    -0.187965
    100 H                     0.125373
    101 H                     0.128811
    102 C                    -0.195664
    103 H                     0.110499
    104 H                     0.111814
    105 C                     0.012162
    106 C                     0.111487
    107 C                    -0.105446
    108 H                     0.086559
    109 C                    -0.094121
    110 H                     0.085657
    111 C                    -0.077210
    112 H                     0.094955
    113 C                    -0.093117
    114 H                     0.091159
    115 C                    -0.118056
    116 H                     0.088024
    117 C                    -0.001989
    118 C                    -0.009079
    119 C                    -0.003867
    120 C                     0.016158
    121 C                     0.008988
    122 C                    -0.005872
    123 C                    -0.021211
    124 C                    -0.007892
    125 C                     0.007257
    126 C                    -0.015776
    127 C                    -0.082411
    128 C                    -0.017664
    129 C                     0.022805
    130 C                    -0.000251
    131 C                    -0.007619
    132 C                     0.019217
    133 C                    -0.098296
    134 C                     0.019625
    135 C                    -0.002338
    136 C                     0.004289
    137 C                    -0.009380
    138 C                     0.039982
    139 C                     0.005253
    140 C                     0.009540
    141 C                     0.042763
    142 C                     0.008915
    143 C                    -0.003720
    144 C                    -0.012018
    145 C                    -0.021089
    146 C                    -0.024583
    147 C                    -0.003116
    148 C                     0.053464
    149 C                    -0.011757
    150 C                    -0.004368
    151 C                     0.002652
    152 C                    -0.008813
    153 C                     0.004839
    154 C                    -0.010097
    155 C                    -0.019917
    156 C                    -0.013386
    157 C                    -0.001249
    158 C                     0.034018
    159 C                    -0.001999
    160 C                    -0.017656
    161 C                     0.010764
    162 C                     0.020114
    163 C                     0.012170
    164 C                    -0.025310
    165 C                    -0.028975
    166 C                    -0.019822
    167 C                     0.005488
    168 C                     0.029971
    169 C                     0.005535
    170 C                     0.014866
    171 C                    -0.002254
    172 C                    -0.003860
    173 C                     0.019800
    174 C                    -0.005336
    175 C                    -0.003374
    176 C                    -0.022328
  ----------------------------------------
  Sum of atomic charges =     0.000000

                    Cartesian Multipole Moments
 -----------------------------------------------------------------
    Charge (ESU x 10^10)
                 0.0000
    Dipole Moment (Debye)
         X      -2.5902      Y      -1.8948      Z       1.3361
       Tot       3.4763
    Quadrupole Moments (Debye-Ang)
        XX    -755.8663     XY      -1.3954     YY    -805.4328
        XZ     -26.5378     YZ     -14.4303     ZZ    -803.0774

 Total job time:  851.91s(wall), 7204.69s(cpu)
        *  Thank you very much for using Q-Chem.  Have a nice day.  *
