 Q-Chem 4.4, Q-Chem, Inc., Pleasanton, CA (2016)
 Q-Chem 4.4.2 for Intel X86 Linux

User input:
--------------------------------------------------------------
$comment
SP
$end

$rem
MEM_STATIC 5000
MEM_TOTAL 20000
JOBTYPE SP
EXCHANGE B3LYP
BASIS 6-31g(d,p)
$end

$molecule
0 1
O          12.834000     -9.809000     -5.643000
C          11.404000     -9.637000     -5.724000
H          11.113000     -9.309000     -6.729000
H          10.967000     -8.904000     -5.035000
H          10.900000    -10.594000     -5.541000
O          13.384000     -7.572000     -5.674000
C          13.721000     -8.748000     -5.631000
C          15.102000     -9.272000     -5.719000
H          15.029000    -10.190000     -6.315000
H          15.439000     -9.681000     -4.759000
C          16.084000     -8.202000     -6.269000
H          15.767000     -7.852000     -7.259000
H          15.998000     -7.331000     -5.608000
C          17.561000     -8.722000     -6.498000
H          17.533000     -9.581000     -7.179000
H          18.078000     -7.918000     -7.037000
C          18.425000     -8.901000     -5.220000
C          18.548000     -7.586000     -4.575000
C          17.703000     -7.289000     -3.482000
H          16.928000     -7.999000     -3.210000
C          17.877000     -6.059000     -2.838000
H          17.229000     -5.756000     -2.021000
C          18.871000     -5.130000     -3.299000
H          19.032000     -4.137000     -2.889000
C          19.654000     -5.460000     -4.405000
H          20.349000     -4.697000     -4.742000
C          19.486000     -6.672000     -5.018000
H          20.208000     -6.906000     -5.795000
C          23.162000    -10.718000     -3.158000
C          21.627000    -10.968000     -1.305000
C          21.396000    -15.493000     -1.472000
C          21.314000    -13.023000     -7.290000
C          18.286000    -15.647000     -3.113000
C          22.079000    -10.306000     -2.415000
C          19.819000    -15.232000     -6.412000
C          23.361000    -13.998000     -1.736000
C          17.881000    -11.592000     -2.535000
C          19.949000    -12.972000     -7.147000
C          18.387000    -10.272000     -4.489000
C          17.383000    -12.240000     -3.651000
C          18.096000    -13.584000     -5.991000
C          19.411000    -16.021000     -5.308000
C          19.795000    -10.128000     -2.320000
C          20.563000    -16.552000     -3.271000
C          19.611000     -9.863000     -5.166000
C          20.004000    -10.692000     -6.244000
C          19.437000    -16.129000     -2.502000
C          23.562000    -14.615000     -5.157000
C          22.820000    -15.822000     -3.356000
C          23.652000    -14.748000     -2.876000
C          23.403000    -12.602000     -1.693000
C          21.465000    -10.824000     -6.312000
C          18.561000    -10.435000     -2.969000
C          22.280000    -12.159000     -0.940000
C          19.200000    -14.031000     -6.672000
C          20.248000    -10.896000     -1.273000
C          17.299000    -13.623000     -3.682000
C          23.294000    -12.410000     -6.201000
C          22.200000    -14.397000     -0.995000
C          17.705000    -11.498000     -4.830000
C          24.227000    -12.576000     -3.959000
C          17.686000    -14.307000     -4.834000
C          18.271000    -12.326000     -1.448000
C          21.666000    -16.130000     -5.437000
C          21.225000    -15.317000     -6.511000
C          18.244000    -13.761000     -1.471000
C          22.094000    -11.938000     -6.833000
C          19.270000    -11.800000     -6.691000
C          23.201000    -13.842000     -6.277000
C          20.923000     -9.597000     -4.418000
C          20.137000    -13.217000     -0.506000
C          18.090000    -12.178000     -6.012000
C          17.688000    -14.438000     -2.609000
C          23.808000    -11.810000     -5.052000
C          20.019000    -15.406000     -1.424000
C          23.885000    -11.875000     -2.799000
C          21.710000    -16.216000     -2.586000
C          19.503000    -12.036000     -0.847000
C          19.375000    -14.307000     -0.886000
C          20.915000     -9.664000     -3.040000
C          21.999000    -10.141000     -5.180000
C          22.866000    -15.769000     -4.729000
C          21.571000    -13.223000     -0.638000
C          18.319000    -15.495000     -4.526000
C          22.010000    -14.213000     -6.958000
C          20.518000    -16.537000     -4.676000
C          23.084000    -10.666000     -4.556000
C          24.050000    -13.995000     -4.014000
O          30.286000    -11.181000      8.777000
C          31.169000    -10.457000      9.693000
H          32.075000    -10.091000      9.194000
H          31.464000    -11.073000     10.552000
H          30.541000     -9.645000     10.081000
O          28.899000    -11.948000     10.337000
C          29.272000    -11.941000      9.192000
C          28.426000    -12.629000      8.017000
H          27.654000    -13.298000      8.416000
H          29.065000    -13.281000      7.409000
C          27.766000    -11.594000      7.074000
H          27.038000    -10.946000      7.578000
H          28.542000    -10.885000      6.759000
C          27.062000    -12.199000      5.879000
H          27.793000    -12.602000      5.167000
H          26.550000    -13.106000      6.223000
C          25.983000    -11.359000      5.108000
C          26.695000    -10.483000      4.071000
C          26.911000    -10.955000      2.800000
H          26.654000    -11.984000      2.567000
C          27.546000    -10.175000      1.796000
H          27.710000    -10.682000      0.849000
C          27.796000     -8.779000      2.118000
H          28.227000     -8.146000      1.348000
C          27.484000     -8.326000      3.380000
H          27.618000     -7.293000      3.688000
C          26.878000     -9.129000      4.364000
H          26.624000     -8.640000      5.300000
C          21.428000     -8.375000      6.224000
C          20.999000     -9.205000      3.951000
C          17.793000    -12.262000      4.927000
C          22.405000    -12.364000      9.178000
C          19.867000    -15.024000      4.852000
C          21.893000     -8.743000      4.929000
C          21.121000    -14.638000      8.300000
C          18.206000     -9.954000      5.847000
C          22.934000    -12.704000      3.209000
C          23.114000    -13.352000      8.497000
C          24.600000    -11.956000      4.764000
C          23.213000    -13.736000      4.054000
C          22.871000    -14.724000      6.664000
C          20.185000    -15.035000      7.305000
C          22.991000    -10.243000      3.682000
C          18.164000    -14.031000      6.311000
C          24.746000    -11.054000      5.978000
C          24.400000    -11.563000      7.369000
C          18.668000    -14.337000      5.001000
C          19.179000    -11.104000      8.989000
C          17.809000    -11.823000      7.307000
C          18.039000    -10.430000      7.147000
C          19.142000     -8.998000      5.527000
C          23.616000    -10.635000      8.026000
C          23.682000    -11.545000      3.625000
C          19.642000     -9.383000      4.224000
C          22.417000    -14.470000      7.953000
C          21.703000    -10.147000      3.179000
C          22.148000    -14.678000      4.379000
C          21.517000    -10.257000      9.298000
C          18.141000    -10.888000      4.747000
C          24.090000    -13.325000      5.037000
C          19.944000     -9.031000      7.824000
C          21.986000    -15.171000      5.669000
C          21.630000    -12.576000      2.723000
C          19.148000    -13.472000      8.470000
C          20.393000    -13.655000      9.033000
C          20.623000    -13.499000      3.069000
C          22.693000    -11.040000      8.987000
C          24.064000    -12.943000      7.516000
C          20.481000    -11.291000      9.577000
C          23.867000     -9.808000      5.943000
C          19.700000    -11.457000      3.009000
C          23.840000    -13.727000      6.378000
C          20.885000    -14.571000      3.893000
C          21.231000     -9.161000      8.376000
C          18.419000    -13.253000      4.216000
C          20.034000     -8.515000      6.494000
C          17.602000    -12.709000      6.233000
C          21.087000    -11.326000      2.694000
C          19.410000    -12.836000      3.208000
C          23.087000     -9.419000      4.792000
C          23.341000     -9.505000      7.177000
C          18.529000    -12.234000      8.405000
C          19.063000    -10.538000      3.798000
C          20.602000    -15.412000      5.987000
C          21.073000    -12.576000      9.539000
C          18.937000    -14.387000      7.434000
C          22.134000     -8.775000      7.343000
C          18.935000     -9.992000      8.124000
$end

--------------------------------------------------------------

             Standard Nuclear Orientation (Angstroms)
    I     Atom           X                Y                Z
 ----------------------------------------------------------------
    1      O       9.2120906276     5.6999815014     0.5231461671
    2      C       9.8049244338     7.0053169447     0.3628574943
    3      H      10.8500339832     6.9957585541     0.6944365452
    4      H       9.3263084882     7.8230855098     0.9152707006
    5      H       9.8077545777     7.2885745320    -0.6969118813
    6      O       9.0619931931     5.7445537685     2.8216487390
    7      C       8.8901482320     5.1650781280     1.7571905241
    8      C       8.4695564050     3.7576986201     1.5786787992
    9      H       9.0437909804     3.3875151549     0.7204900935
   10      H       7.4491220077     3.6899045404     1.1829925553
   11      C       8.6375702852     2.9416585787     2.8892412688
   12      H       9.6782589372     2.9662827222     3.2348563456
   13      H       8.0596581004     3.4666762036     3.6595217373
   14      C       8.3138884775     1.3990059452     2.7484473068
   15      H       8.9516771621     0.9728666294     1.9648294935
   16      H       8.6370645903     0.9410943917     3.6918985294
   17      C       6.8087774881     1.0238673171     2.6727312641
   18      C       6.1742470233     1.4641134167     3.9233045171
   19      C       5.4622327509     2.6847341110     3.9252530260
   20      H       5.4819466256     3.3049705264     3.0343954885
   21      C       4.8095030516     3.0575932170     5.1054360739
   22      H       4.2838921469     4.0047680515     5.1815610363
   23      C       4.8889621663     2.2272019531     6.2749379328
   24      H       4.4571070433     2.4710416367     7.2414333345
   25      C       5.6351783207     1.0498548637     6.2276063170
   26      H       5.7054011675     0.4920934094     7.1564410235
   27      C       6.2569878275     0.6869182285     5.0637476760
   28      H       6.7191989324    -0.2959893660     5.0684969076
   29      C       3.1612994581    -2.9774577908     1.8494430998
   30      C       1.9846221463    -1.0015730313     1.0986808731
   31      C       2.1845025568    -1.9685571859    -3.3264591774
   32      C       7.6615840169    -3.3301438768    -0.4796349183
   33      C       4.8354090920     0.2250209145    -4.0678137879
   34      C       2.8625523532    -1.6365681474     1.9357398641
   35      C       7.3628371404    -2.2166667284    -3.0402030084
   36      C       1.7348944353    -3.4668498244    -1.3980096171
   37      C       4.4775468289     1.7948206534    -0.2798331411
   38      C       8.0210125579    -2.0346259885    -0.7602049187
   39      C       6.1288481858     0.9767668717     1.2759765641
   40      C       5.6923909774     1.6922708862    -0.9332864602
   41      C       7.6059536740    -0.1059500513    -1.8793225408
   42      C       6.4735320299    -1.6548616261    -3.9895777749
   43      C       3.5993303917     0.5033222042     1.5677827944
   44      C       4.1536156319    -2.1101367310    -4.4008519965
   45      C       6.3222932352    -0.2656076249     2.0127741097
   46      C       7.1787461774    -1.2040885132     1.3886619563
   47      C       3.8462251831    -0.7185608236    -4.3160368688
   48      C       4.8476178787    -5.0032904019    -1.6712020706
   49      C       3.4251145086    -3.9980129239    -3.1601330139
   50      C       2.6866467525    -4.3155166549    -1.9643250218
   51      C       1.6917326218    -3.1450946410    -0.0389512446
   52      C       6.7140407900    -2.5799257340     1.6070420025
   53      C       4.6470589813     1.3137537379     1.0351745596
   54      C       1.3983555715    -1.7569161185     0.0672433694
   55      C       7.8389991480    -1.4526466971    -1.9996718295
   56      C       2.4528056190     0.2727492563     0.8442089824
   57      C       5.7396230572     1.4158709298    -2.2905182733
   58      C       5.9370616209    -4.5840399871     0.4877621306
   59      C       1.4591228566    -2.2564001105    -2.1156199059
   60      C       6.6822572957     1.1701611420    -0.0434240624
   61      C       3.5081081565    -4.6793901379     0.3624528468
   62      C       6.6685115853     0.4925834650    -2.7695123858
   63      C       3.3167349221     1.6435935018    -0.9884028735
   64      C       5.7795217270    -3.7634852983    -3.5587612147
   65      C       6.9472891976    -3.5421335513    -2.7865899003
   66      C       3.3354956165     1.3056973829    -2.3833785898
   67      C       6.9634186654    -3.6060596588     0.7165714282
   68      C       7.8507937299    -0.9718743840     0.1800852374
   69      C       6.0290844783    -4.8802264655    -0.9153965787
   70      C       5.1537434328    -1.1217935834     2.5158058818
   71      C       1.7574040336     0.0697438076    -1.4930664449
   72      C       7.6398811254     0.2391206989    -0.5165723416
   73      C       4.5915272722     1.2406324200    -3.0766750853
   74      C       4.6852533573    -4.4961855274     1.0957544539
   75      C       2.6371722793    -0.6867138976    -3.5672285827
   76      C       2.5556742644    -3.7897313995     0.8677666209
   77      C       3.1039439537    -2.8221896500    -3.8633578026
   78      C       2.3143473016     0.8138978587    -0.4688365174
   79      C       2.3772200620     0.3552396401    -2.6961725169
   80      C       3.8708681471    -0.6466765566     2.3371111362
   81      C       5.4715923394    -2.4956220706     2.3015085169
   82      C       4.6894987513    -4.5091435393    -2.9865473559
   83      C       1.3632179345    -1.2731102128    -1.1536899589
   84      C       6.1426455711    -0.2639963152    -3.7980788501
   85      C       7.0905932150    -4.1356721561    -1.4973940722
   86      C       5.4803389280    -2.5597188739    -4.2827156664
   87      C       4.4937178069    -3.3856460732     1.9951677368
   88      C       3.6109568755    -4.8891295148    -1.0494064007
   89      O     -10.5434142642    -5.3293454332     2.0931977081
   90      C     -11.7099410185    -5.6260191494     2.9263369747
   91      H     -11.5681762746    -6.5292630983     3.5328401703
   92      H     -12.6228220958    -5.7424839986     2.3284690314
   93      H     -11.8382539269    -4.7220847708     3.5351969230
   94      O     -11.5046888825    -3.7177226129     0.8997652663
   95      C     -10.5712941052    -4.4553510310     1.0865311797
   96      C      -9.1762471614    -4.2742546894     0.3179395197
   97      H      -9.2757057964    -3.6019613239    -0.5428017949
   98      H      -8.8453349156    -5.2259707375    -0.1154455855
   99      C      -8.0497398193    -3.7542882360     1.2435150680
  100      H      -8.2515897080    -2.7597490691     1.6607110268
  101      H      -8.0297194519    -4.3907909846     2.1371287631
  102      C      -6.6865404574    -3.6879690320     0.5900969302
  103      H      -6.2896611300    -4.6978668835     0.4279022044
  104      H      -6.8305470043    -3.3285470104    -0.4361617725
  105      C      -5.5710034513    -2.7772908717     1.2150165061
  106      C      -4.8530844194    -3.5685949195     2.3141612498
  107      C      -3.7496957200    -4.3269685728     2.0103787949
  108      H      -3.4486028869    -4.4307778648     0.9722334598
  109      C      -3.0356115057    -5.0608321446     2.9958578626
  110      H      -2.2159455694    -5.6669854317     2.6197196628
  111      C      -3.4140058811    -4.8288294560     4.3807739067
  112      H      -2.8458504202    -5.3324929796     5.1572225059
  113      C      -4.4745382303    -3.9916168857     4.6444844460
  114      H      -4.8011785428    -3.7493796230     5.6517263309
  115      C      -5.1806290968    -3.2966495408     3.6451061004
  116      H      -5.9577289339    -2.6175318843     3.9837032827
  117      C      -4.9430010172     2.4649356672     2.9535247337
  118      C      -2.6755547703     1.8484153613     2.2337607239
  119      C      -2.4558887450     4.3321500015    -1.5555756394
  120      C      -8.0849784188     1.6365427523    -0.9239111699
  121      C      -3.1579535342     1.7511364602    -3.7421755415
  122      C      -3.9061422751     1.4989360003     2.8105471397
  123      C      -6.8226766196     1.9261193293    -3.3556503775
  124      C      -3.4428978887     4.8522840927     0.7025444808
  125      C      -2.7117935567    -1.0234651054    -0.6452633008
  126      C      -7.7141424605     0.5130176443    -1.6606323002
  127      C      -4.7564982206    -1.7966629929     0.3418703601
  128      C      -3.6094495544    -1.2330817428    -1.6488391948
  129      C      -5.9288431594    -0.2505680371    -2.8979541308
  130      C      -5.5605218456     2.3235939562    -3.8778660871
  131      C      -3.1521776140    -0.3012231514     1.7143823171
  132      C      -3.8958064522     4.0470266680    -3.2956330181
  133      C      -5.9335751393    -1.2790959296     1.1513950740
  134      C      -7.1104866808    -0.6032753339     0.4645007984
  135      C      -2.8584883557     3.0558380981    -3.3682166625
  136      C      -6.7341797705     4.7943280545    -0.4400392895
  137      C      -4.6775454118     5.2627357103    -1.3197178571
  138      C      -4.5992183757     5.3426138673     0.0967684137
  139      C      -3.4737868685     4.1305017301     1.8732314979
  140      C      -7.4324064592     0.5647317294     1.1275363603
  141      C      -3.3595372745    -1.2666317658     0.6185163680
  142      C      -2.4422387101     3.1258870490     1.7225937226
  143      C      -6.9650611300     0.6752508745    -2.8623920679
  144      C      -2.2176464806     0.7087687513     1.5478382775
  145      C      -3.5365723102    -0.3895930804    -2.8364543613
  146      C      -7.8583450889     3.0006924927     0.9009520633
  147      C      -2.4016359581     4.2937480672    -0.1283538884
  148      C      -4.8390101057    -1.5780396187    -1.1258440566
  149      C      -5.9056320725     4.2056133426     1.8417807517
  150      C      -4.6855171167     0.0885099915    -3.4567254992
  151      C      -1.7870689852     0.0148501979    -0.7859110796
  152      C      -6.2594668677     4.0553904432    -2.6997660133
  153      C      -7.2351999769     3.0838485771    -2.6324287873
  154      C      -1.7545332191     0.8180342678    -1.9432920773
  155      C      -7.9992576743     1.6361154079     0.4417581793
  156      C      -7.1383426441    -0.5887919122    -0.9630563023
  157      C      -7.7538234360     3.7791138670    -0.3653134650
  158      C      -5.5730859764    -0.1900788819     2.1566171555
  159      C      -1.3479628493     2.1344688534    -0.1749613627
  160      C      -6.0029899303    -0.9800785961    -1.6826012600
  161      C      -2.6268182991     0.6065139961    -2.9878886089
  162      C      -6.8857964449     3.2053581973     1.9711656327
  163      C      -2.0271614668     3.2722909328    -2.3121268111
  164      C      -4.6932120263     3.7841447704     2.4707941650
  165      C      -3.6088971218     4.8534200760    -2.1393351725
  166      C      -1.5533360097     0.8035401057     0.3010696588
  167      C      -1.4408997015     2.1259393213    -1.5950430465
  168      C      -4.2149003857     0.2056832109     2.4451067866
  169      C      -6.5316138847     0.7935187760     2.2273341712
  170      C      -5.9648495679     4.8970943706    -1.6392165589
  171      C      -1.8460921177     3.2139106480     0.5029203703
  172      C      -4.4849767220     1.3906335658    -4.0388927838
  173      C      -7.9430468157     2.9139822612    -1.4693401030
  174      C      -5.2250673509     3.6558878259    -3.5515038242
  175      C      -6.2447455887     2.1220345074     2.6397144960
  176      C      -5.8298025082     4.9850530846     0.6508460071
 ----------------------------------------------------------------

    9   -5804.2785530399      8.17E-06 Convergence criterion met
 Total energy in the final basis set = -5804.2785530399

                    Orbital Energies (a.u.)
 --------------------------------------------------------------

 Alpha MOs
 -- Occupied --
-19.192 -19.188 -19.138 -19.129 -10.318 -10.318 -10.254 -10.245
-10.244 -10.244 -10.240 -10.239 -10.236 -10.235 -10.234 -10.229
-10.229 -10.229 -10.228 -10.228 -10.226 -10.226 -10.225 -10.223
-10.222 -10.221 -10.221 -10.221 -10.221 -10.221 -10.220 -10.220
-10.220 -10.220 -10.220 -10.220 -10.220 -10.220 -10.220 -10.219
-10.219 -10.219 -10.219 -10.219 -10.219 -10.218 -10.218 -10.218
-10.218 -10.218 -10.218 -10.218 -10.218 -10.217 -10.217 -10.217
-10.217 -10.217 -10.217 -10.217 -10.217 -10.217 -10.216 -10.216
-10.216 -10.216 -10.216 -10.216 -10.215 -10.215 -10.215 -10.215
-10.215 -10.215 -10.215 -10.215 -10.214 -10.214 -10.214 -10.214
-10.214 -10.214 -10.214 -10.214 -10.213 -10.213 -10.213 -10.213
-10.213 -10.213 -10.212 -10.212 -10.212 -10.212 -10.212 -10.212
-10.212 -10.212 -10.212 -10.212 -10.211 -10.211 -10.211 -10.211
-10.211 -10.211 -10.210 -10.210 -10.210 -10.210 -10.210 -10.210
-10.209 -10.209 -10.209 -10.209 -10.209 -10.209 -10.209 -10.209
-10.208 -10.208 -10.208 -10.208 -10.207 -10.207 -10.207 -10.207
-10.207 -10.207 -10.206 -10.206 -10.206 -10.204 -10.204 -10.203
-10.202 -10.201 -10.200 -10.200 -10.199 -10.198 -10.198 -10.198
-10.196 -10.196 -10.195 -10.194  -1.099  -1.084  -1.009  -1.008
 -0.984  -0.980  -0.967  -0.964  -0.963  -0.961  -0.960  -0.957
 -0.937  -0.929  -0.928  -0.924  -0.923  -0.923  -0.922  -0.922
 -0.921  -0.919  -0.898  -0.894  -0.889  -0.885  -0.885  -0.884
 -0.875  -0.872  -0.857  -0.852  -0.841  -0.839  -0.839  -0.838
 -0.838  -0.834  -0.821  -0.817  -0.804  -0.801  -0.799  -0.796
 -0.795  -0.795  -0.793  -0.792  -0.791  -0.790  -0.785  -0.782
 -0.771  -0.770  -0.769  -0.768  -0.767  -0.765  -0.763  -0.763
 -0.755  -0.750  -0.743  -0.742  -0.735  -0.733  -0.718  -0.716
 -0.715  -0.712  -0.712  -0.711  -0.710  -0.709  -0.709  -0.708
 -0.707  -0.706  -0.705  -0.704  -0.703  -0.702  -0.673  -0.671
 -0.662  -0.659  -0.658  -0.654  -0.650  -0.644  -0.632  -0.632
 -0.629  -0.625  -0.625  -0.622  -0.622  -0.619  -0.619  -0.617
 -0.616  -0.613  -0.612  -0.611  -0.610  -0.610  -0.608  -0.606
 -0.606  -0.605  -0.603  -0.601  -0.569  -0.567  -0.565  -0.563
 -0.561  -0.559  -0.558  -0.557  -0.556  -0.555  -0.554  -0.553
 -0.538  -0.537  -0.536  -0.532  -0.528  -0.525  -0.524  -0.524
 -0.522  -0.521  -0.519  -0.517  -0.514  -0.514  -0.514  -0.512
 -0.506  -0.506  -0.502  -0.498  -0.492  -0.489  -0.488  -0.485
 -0.484  -0.483  -0.481  -0.480  -0.480  -0.478  -0.475  -0.475
 -0.473  -0.472  -0.470  -0.468  -0.468  -0.467  -0.467  -0.465
 -0.465  -0.464  -0.463  -0.461  -0.461  -0.460  -0.459  -0.456
 -0.456  -0.455  -0.454  -0.452  -0.449  -0.444  -0.442  -0.442
 -0.441  -0.440  -0.439  -0.439  -0.437  -0.436  -0.433  -0.431
 -0.430  -0.429  -0.429  -0.427  -0.427  -0.427  -0.425  -0.424
 -0.423  -0.422  -0.421  -0.421  -0.420  -0.418  -0.418  -0.418
 -0.417  -0.416  -0.416  -0.416  -0.415  -0.415  -0.414  -0.413
 -0.413  -0.411  -0.411  -0.408  -0.404  -0.401  -0.399  -0.396
 -0.392  -0.391  -0.390  -0.389  -0.388  -0.387  -0.383  -0.382
 -0.382  -0.379  -0.373  -0.372  -0.369  -0.368  -0.366  -0.366
 -0.365  -0.364  -0.363  -0.362  -0.360  -0.359  -0.359  -0.358
 -0.355  -0.355  -0.354  -0.353  -0.353  -0.352  -0.351  -0.351
 -0.350  -0.348  -0.347  -0.346  -0.345  -0.345  -0.344  -0.343
 -0.341  -0.341  -0.341  -0.338  -0.338  -0.338  -0.335  -0.332
 -0.332  -0.331  -0.330  -0.329  -0.328  -0.328  -0.327  -0.322
 -0.305  -0.304  -0.298  -0.297  -0.290  -0.287  -0.273  -0.272
 -0.270  -0.269  -0.267  -0.267  -0.265  -0.265  -0.264  -0.263
 -0.262  -0.261  -0.260  -0.259  -0.257  -0.256  -0.254  -0.253
 -0.250  -0.249  -0.246  -0.244  -0.222  -0.219  -0.215  -0.210
 -0.209  -0.208  -0.207  -0.205  -0.202  -0.196

          Ground-State Mulliken Net Atomic Charges

     Atom                 Charge (a.u.)
  ----------------------------------------
      1 O                    -0.481453
      2 C                    -0.084428
      3 H                     0.122742
      4 H                     0.129244
      5 H                     0.124456
      6 O                    -0.473754
      7 C                     0.614190
      8 C                    -0.271858
      9 H                     0.138355
     10 H                     0.138266
     11 C                    -0.184516
     12 H                     0.112259
     13 H                     0.135305
     14 C                    -0.196871
     15 H                     0.105674
     16 H                     0.110928
     17 C                     0.012439
     18 C                     0.085560
     19 C                    -0.091468
     20 H                     0.096468
     21 C                    -0.104822
     22 H                     0.093541
     23 C                    -0.081960
     24 H                     0.090231
     25 C                    -0.083955
     26 H                     0.090759
     27 C                    -0.097397
     28 H                     0.088963
     29 C                     0.012872
     30 C                    -0.011410
     31 C                     0.021037
     32 C                    -0.014878
     33 C                    -0.028641
     34 C                    -0.000656
     35 C                    -0.013875
     36 C                    -0.016981
     37 C                     0.020694
     38 C                     0.023549
     39 C                    -0.087948
     40 C                     0.024229
     41 C                    -0.019477
     42 C                    -0.015817
     43 C                     0.014060
     44 C                     0.002445
     45 C                    -0.077369
     46 C                     0.053549
     47 C                    -0.011846
     48 C                     0.021025
     49 C                     0.015350
     50 C                    -0.018177
     51 C                     0.004438
     52 C                    -0.014745
     53 C                     0.012893
     54 C                     0.000150
     55 C                     0.039220
     56 C                     0.016836
     57 C                    -0.000736
     58 C                    -0.007130
     59 C                    -0.043663
     60 C                     0.036627
     61 C                     0.008659
     62 C                     0.006114
     63 C                    -0.010089
     64 C                    -0.034379
     65 C                     0.013931
     66 C                    -0.010875
     67 C                     0.004750
     68 C                    -0.028977
     69 C                    -0.013488
     70 C                     0.024659
     71 C                     0.008544
     72 C                    -0.049000
     73 C                    -0.019585
     74 C                    -0.006192
     75 C                     0.021463
     76 C                    -0.029566
     77 C                     0.003956
     78 C                    -0.013400
     79 C                    -0.001772
     80 C                    -0.023474
     81 C                     0.016117
     82 C                    -0.011835
     83 C                     0.045356
     84 C                     0.017144
     85 C                    -0.011982
     86 C                     0.018028
     87 C                     0.001700
     88 C                     0.003563
     89 O                    -0.455869
     90 C                    -0.086174
     91 H                     0.131718
     92 H                     0.136681
     93 H                     0.134843
     94 O                    -0.455663
     95 C                     0.561006
     96 C                    -0.240098
     97 H                     0.131742
     98 H                     0.116948
     99 C                    -0.184213
    100 H                     0.109634
    101 H                     0.119503
    102 C                    -0.190290
    103 H                     0.107043
    104 H                     0.102803
    105 C                     0.000543
    106 C                     0.092511
    107 C                    -0.102422
    108 H                     0.090084
    109 C                    -0.098492
    110 H                     0.099078
    111 C                    -0.088764
    112 H                     0.094014
    113 C                    -0.085081
    114 H                     0.085885
    115 C                    -0.104149
    116 H                     0.097505
    117 C                    -0.012285
    118 C                     0.003822
    119 C                    -0.010929
    120 C                     0.044323
    121 C                    -0.001710
    122 C                     0.000766
    123 C                     0.003550
    124 C                     0.004304
    125 C                    -0.009617
    126 C                    -0.042139
    127 C                    -0.089123
    128 C                     0.008902
    129 C                     0.007786
    130 C                    -0.012037
    131 C                    -0.016389
    132 C                    -0.026220
    133 C                    -0.080663
    134 C                     0.012396
    135 C                     0.013836
    136 C                    -0.025433
    137 C                     0.026333
    138 C                    -0.018453
    139 C                    -0.002407
    140 C                     0.018168
    141 C                     0.022099
    142 C                    -0.033219
    143 C                     0.010623
    144 C                    -0.005534
    145 C                     0.025094
    146 C                    -0.043522
    147 C                    -0.002251
    148 C                     0.032011
    149 C                     0.007842
    150 C                    -0.030516
    151 C                     0.019677
    152 C                     0.026724
    153 C                     0.000109
    154 C                     0.000947
    155 C                     0.017563
    156 C                    -0.023668
    157 C                    -0.030594
    158 C                     0.035205
    159 C                    -0.017058
    160 C                     0.018776
    161 C                    -0.010974
    162 C                     0.004840
    163 C                     0.015148
    164 C                    -0.009704
    165 C                    -0.013225
    166 C                     0.003647
    167 C                    -0.024226
    168 C                     0.008185
    169 C                    -0.001410
    170 C                     0.007612
    171 C                     0.057547
    172 C                    -0.013919
    173 C                     0.006917
    174 C                     0.000234
    175 C                     0.007845
    176 C                     0.012173
  ----------------------------------------
  Sum of atomic charges =     0.000000

                    Cartesian Multipole Moments
 -----------------------------------------------------------------
    Charge (ESU x 10^10)
                 0.0000
    Dipole Moment (Debye)
         X       1.3945      Y      -2.4667      Z       2.7698
       Tot       3.9625
    Quadrupole Moments (Debye-Ang)
        XX    -811.0675     XY      32.1183     YY    -787.8750
        XZ     -21.5202     YZ     -22.2485     ZZ    -793.1781

 Total job time:  846.08s(wall), 7142.79s(cpu)
        *  Thank you very much for using Q-Chem.  Have a nice day.  *
