 Q-Chem 4.4, Q-Chem, Inc., Pleasanton, CA (2016)
 Q-Chem 4.4.2 for Intel X86 Linux

User input:
--------------------------------------------------------------
$comment
SP
$end

$rem
MEM_STATIC 5000
MEM_TOTAL 20000
JOBTYPE SP
EXCHANGE B3LYP
BASIS 6-31g(d,p)
$end

$molecule
0 1
O          15.457000    -14.963000      0.955000
C          16.373000    -14.678000      2.062000
H          17.357000    -14.336000      1.719000
H          16.603000    -15.573000      2.654000
H          15.916000    -14.037000      2.826000
O          16.827000    -16.493000     -0.053000
C          15.759000    -15.950000      0.039000
C          14.569000    -16.395000     -0.738000
H          14.103000    -17.200000     -0.155000
H          14.885000    -16.847000     -1.686000
C          13.535000    -15.241000     -1.131000
H          12.736000    -15.555000     -1.814000
H          13.042000    -14.977000     -0.187000
C          14.305000    -14.057000     -1.797000
H          15.113000    -13.694000     -1.150000
H          14.709000    -14.396000     -2.758000
C          13.326000    -12.805000     -1.971000
C          12.357000    -13.000000     -3.191000
C          11.028000    -13.473000     -2.952000
H          10.739000    -13.791000     -1.955000
C          10.134000    -13.581000     -4.029000
H           9.088000    -13.782000     -3.814000
C          10.538000    -13.187000     -5.314000
H           9.846000    -13.215000     -6.151000
C          11.893000    -12.889000     -5.549000
H          12.201000    -12.646000     -6.561000
C          12.750000    -12.632000     -4.503000
H          13.756000    -12.290000     -4.727000
C          12.833000     -7.325000     -1.801000
C          10.722000     -8.108000     -1.114000
C          11.195000     -6.882000      3.240000
C          16.576000     -9.467000      0.981000
C          11.952000    -10.129000      4.271000
C          11.818000     -8.289000     -1.928000
C          15.541000     -9.907000      3.581000
C          11.791000     -5.785000      1.184000
C          10.932000    -11.656000      0.705000
C          16.102000    -10.737000      1.379000
C          12.772000    -12.112000     -0.719000
C          11.969000    -12.159000      1.514000
C          14.478000    -11.785000      2.534000
C          14.407000     -9.657000      4.346000
C          11.016000    -10.394000     -1.335000
C          12.796000     -7.846000      4.514000
C          13.824000    -11.386000     -1.570000
C          15.114000    -11.048000     -0.871000
C          11.707000     -8.755000      4.422000
C          15.217000     -6.296000      1.750000
C          13.386000     -6.017000      3.055000
C          13.102000     -5.535000      1.740000
C          11.674000     -6.085000     -0.171000
C          15.534000     -9.747000     -1.152000
C          11.430000    -11.529000     -0.626000
C          10.659000     -7.048000     -0.254000
C          15.560000    -10.950000      2.637000
C          10.188000     -9.381000     -0.786000
C          12.049000    -11.843000      2.836000
C          16.034000     -7.615000     -0.217000
C          10.836000     -6.402000      1.969000
C          13.045000    -12.426000      0.716000
C          14.070000     -6.074000     -0.426000
C          13.384000    -11.671000      3.377000
C          10.065000    -10.715000      1.283000
C          15.104000     -7.662000      3.699000
C          15.975000     -8.654000      3.169000
C          10.179000    -10.345000      2.655000
C          16.300000     -8.985000     -0.323000
C          15.320000    -11.513000      0.437000
C          16.080000     -7.255000      1.147000
C          13.423000    -10.093000     -2.130000
C           9.642000     -8.448000      1.475000
C          14.314000    -12.138000      1.194000
C          11.175000    -10.875000      3.413000
C          14.963000     -7.023000     -0.959000
C          10.695000     -8.145000      3.614000
C          12.791000     -6.232000     -0.980000
C          12.437000     -6.709000      3.791000
C           9.769000     -9.515000      0.595000
C           9.944000     -8.898000      2.737000
C          12.102000     -9.640000     -1.969000
C          14.446000     -9.145000     -1.974000
C          14.713000     -6.511000      3.004000
C          10.063000     -7.138000      1.037000
C          13.310000    -10.559000      4.268000
C          16.425000     -8.439000      1.852000
C          14.112000     -8.278000      4.487000
C          14.152000     -7.777000     -1.865000
C          14.254000     -5.736000      0.887000
O          30.286000    -11.181000      8.777000
C          31.169000    -10.457000      9.693000
H          32.075000    -10.091000      9.194000
H          31.464000    -11.073000     10.552000
H          30.541000     -9.645000     10.081000
O          28.899000    -11.948000     10.337000
C          29.272000    -11.941000      9.192000
C          28.426000    -12.629000      8.017000
H          27.654000    -13.298000      8.416000
H          29.065000    -13.281000      7.409000
C          27.766000    -11.594000      7.074000
H          27.038000    -10.946000      7.578000
H          28.542000    -10.885000      6.759000
C          27.062000    -12.199000      5.879000
H          27.793000    -12.602000      5.167000
H          26.550000    -13.106000      6.223000
C          25.983000    -11.359000      5.108000
C          26.695000    -10.483000      4.071000
C          26.911000    -10.955000      2.800000
H          26.654000    -11.984000      2.567000
C          27.546000    -10.175000      1.796000
H          27.710000    -10.682000      0.849000
C          27.796000     -8.779000      2.118000
H          28.227000     -8.146000      1.348000
C          27.484000     -8.326000      3.380000
H          27.618000     -7.293000      3.688000
C          26.878000     -9.129000      4.364000
H          26.624000     -8.640000      5.300000
C          21.428000     -8.375000      6.224000
C          20.999000     -9.205000      3.951000
C          17.793000    -12.262000      4.927000
C          22.405000    -12.364000      9.178000
C          19.867000    -15.024000      4.852000
C          21.893000     -8.743000      4.929000
C          21.121000    -14.638000      8.300000
C          18.206000     -9.954000      5.847000
C          22.934000    -12.704000      3.209000
C          23.114000    -13.352000      8.497000
C          24.600000    -11.956000      4.764000
C          23.213000    -13.736000      4.054000
C          22.871000    -14.724000      6.664000
C          20.185000    -15.035000      7.305000
C          22.991000    -10.243000      3.682000
C          18.164000    -14.031000      6.311000
C          24.746000    -11.054000      5.978000
C          24.400000    -11.563000      7.369000
C          18.668000    -14.337000      5.001000
C          19.179000    -11.104000      8.989000
C          17.809000    -11.823000      7.307000
C          18.039000    -10.430000      7.147000
C          19.142000     -8.998000      5.527000
C          23.616000    -10.635000      8.026000
C          23.682000    -11.545000      3.625000
C          19.642000     -9.383000      4.224000
C          22.417000    -14.470000      7.953000
C          21.703000    -10.147000      3.179000
C          22.148000    -14.678000      4.379000
C          21.517000    -10.257000      9.298000
C          18.141000    -10.888000      4.747000
C          24.090000    -13.325000      5.037000
C          19.944000     -9.031000      7.824000
C          21.986000    -15.171000      5.669000
C          21.630000    -12.576000      2.723000
C          19.148000    -13.472000      8.470000
C          20.393000    -13.655000      9.033000
C          20.623000    -13.499000      3.069000
C          22.693000    -11.040000      8.987000
C          24.064000    -12.943000      7.516000
C          20.481000    -11.291000      9.577000
C          23.867000     -9.808000      5.943000
C          19.700000    -11.457000      3.009000
C          23.840000    -13.727000      6.378000
C          20.885000    -14.571000      3.893000
C          21.231000     -9.161000      8.376000
C          18.419000    -13.253000      4.216000
C          20.034000     -8.515000      6.494000
C          17.602000    -12.709000      6.233000
C          21.087000    -11.326000      2.694000
C          19.410000    -12.836000      3.208000
C          23.087000     -9.419000      4.792000
C          23.341000     -9.505000      7.177000
C          18.529000    -12.234000      8.405000
C          19.063000    -10.538000      3.798000
C          20.602000    -15.412000      5.987000
C          21.073000    -12.576000      9.539000
C          18.937000    -14.387000      7.434000
C          22.134000     -8.775000      7.343000
C          18.935000     -9.992000      8.124000
$end

--------------------------------------------------------------

             Standard Nuclear Orientation (Angstroms)
    I     Atom           X                Y                Z
 ----------------------------------------------------------------
    1      O       2.8245896218    -4.2043761965    -1.5355370717
    2      C       1.5269121825    -3.5635077981    -1.7614816654
    3      H       0.8727929612    -3.6120632620    -0.8824825692
    4      H       0.9444523835    -4.0656349372    -2.5444235015
    5      H       1.6277731664    -2.5592478939    -2.1912666195
    6      O       1.9491261353    -6.2403255607    -0.9677890021
    7      C       2.8937610197    -5.5521153805    -1.2470177312
    8      C       4.2538581330    -6.1169847438    -1.4681793116
    9      H       4.2912487808    -6.4290997091    -2.5199664516
   10      H       4.3847654847    -7.0290641894    -0.8733361809
   11      C       5.4687364555    -5.1589002619    -1.0663512548
   12      H       6.4577586847    -5.6318723497    -1.1065810217
   13      H       5.4732067441    -4.3783400990    -1.8374458331
   14      C       5.2481413126    -4.6182928386     0.3818867770
   15      H       4.2739417063    -4.1232924643     0.4775515909
   16      H       5.3210793685    -5.4559151669     1.0852550128
   17      C       6.3206869674    -3.4766793459     0.7021764138
   18      C       7.7286143177    -4.0887653331     1.0315353679
   19      C       8.7185813907    -4.1449236268     0.0000789023
   20      H       8.4563755261    -3.8663968757    -1.0159550211
   21      C      10.0020737226    -4.6242771683     0.3061779326
   22      H      10.7870612586    -4.5096401148    -0.4363817716
   23      C      10.3108590650    -5.0020709209     1.6220808519
   24      H      11.3120383022    -5.3276051497     1.8901938892
   25      C       9.2771934387    -5.0968478034     2.5721370163
   26      H       9.5218624250    -5.4497663422     3.5689532442
   27      C       8.0570960593    -4.5002820945     2.3483385804
   28      H       7.3266711476    -4.4929684167     3.1518321761
   29      C       7.2677594411     1.3431188107     3.1871207712
   30      C       8.6891258818     1.3809796613     1.3110442809
   31      C       6.3202679522     4.5220024597    -0.9707552040
   32      C       2.4397760417     0.2832639284     1.8068958173
   33      C       4.8109351216     2.1541228790    -3.0429713360
   34      C       8.1065473078     0.6336258138     2.3103627646
   35      C       2.0434203600     1.3877609303    -0.7714396044
   36      C       6.9092467303     4.3220986255     1.3527988531
   37      C       7.2443576844    -0.7548348329    -1.7372513580
   38      C       2.5221040861    -0.5148073505     0.6440182111
   39      C       6.2772437862    -2.1673982144    -0.0969259631
   40      C       5.8982891841    -0.9525523541    -2.1003854574
   41      C       3.2658693359    -0.5501111729    -1.4808987033
   42      C       2.6901553988     2.1755836620    -1.7173519328
   43      C       8.2892642438    -0.7197821889     0.4233600356
   44      C       4.2095823601     4.0701994723    -1.6463685488
   45      C       5.8499861992    -2.1560291753     1.3779647783
   46      C       4.4286233979    -1.7380137672     1.6461734765
   47      C       5.1019740455     3.4374766918    -2.5540937071
   48      C       3.6000530231     3.5903839700     2.2653686703
   49      C       4.5971254185     4.7915934522     0.6233061203
   50      C       5.5286676991     4.5902383296     1.6881488758
   51      C       7.6290958908     3.4086660640     2.1190704379
   52      C       4.3404801272    -0.8458649987     2.7158759298
   53      C       7.4642180200    -1.3982311348    -0.4829002782
   54      C       8.4468581477     2.7220599822     1.2111497477
   55      C       2.3661872249     0.0265042134    -0.6226185652
   56      C       8.8569631877     0.5554855492     0.1692653577
   57      C       5.2282406887    -0.0357887750    -2.8517306203
   58      C       3.6895640826     1.3470447850     3.3770143293
   59      C       7.2957233564     4.3537182100     0.0266861055
   60      C       5.3160181980    -1.7614873113    -1.1663331389
   61      C       5.6677224785     2.8835959991     3.4164823864
   62      C       3.8254453354     0.1545643152    -2.5348380550
   63      C       7.8241861902     0.4804700858    -2.0675158909
   64      C       2.6127128392     3.4264080265     0.1030557301
   65      C       2.0007657815     2.1711812517     0.3742227311
   66      C       7.1064424094     1.4623368275    -2.8111969829
   67      C       3.3590727431     0.0860604768     2.8675184520
   68      C       3.5701816434    -1.5124972113     0.5590925056
   69      C       3.0337441292     2.3279593742     2.6024701037
   70      C       6.6094393871    -1.2710600823     2.2647063189
   71      C       8.3481577735     2.5724769191    -1.2284430755
   72      C       4.0136139449    -1.4930351987    -0.7745862503
   73      C       5.8175958955     1.2231187889    -3.1705427686
   74      C       5.0427771905     1.6596273022     3.7222323106
   75      C       6.4375161620     3.7222644723    -2.1247556410
   76      C       7.0295616553     2.6891085178     3.1420927437
   77      C       4.9937097462     4.7339982851    -0.7035565960
   78      C       8.5435717537     1.2045751865    -1.0881711027
   79      C       7.4299114742     2.7713897611    -2.2302441612
   80      C       7.7312489335    -0.5817316619     1.7722221358
   81      C       5.7480088123    -0.5619792664     3.1160057734
   82      C       3.4127700239     4.1215447041     1.0181516271
   83      C       8.3355428843     3.3934581130    -0.0405812386
   84      C       3.5835501658     1.5571719355    -2.6352352189
   85      C       2.2653025930     1.6176315047     1.6418255683
   86      C       3.0300562822     3.4666591205    -1.2418116611
   87      C       6.1012066161     0.7035627859     3.6093571951
   88      C       4.9139010196     3.7968711284     2.7310987374
   89      O     -13.4233579648     0.4062661283     1.6476414614
   90      C     -14.5525302455     1.3296568984     1.7710936638
   91      H     -15.0612119394     1.2365745382     2.7387566260
   92      H     -15.2892735046     1.1870209405     0.9703275595
   93      H     -14.1035383015     2.3197457113     1.6214194284
   94      O     -13.0496235728     0.7720763380    -0.5138773321
   95      C     -12.8234607426     0.1412122710     0.4866544781
   96      C     -11.5981386130    -0.8876297061     0.5854211983
   97      H     -11.1911922407    -1.1245399925    -0.4050403943
   98      H     -11.9335180881    -1.8539818072     0.9813671848
   99      C     -10.4575600663    -0.3695008807     1.4946500469
  100      H      -9.9952125501     0.5564724628     1.1303532702
  101      H     -10.9039586361    -0.0572479149     2.4471774231
  102      C      -9.3371201846    -1.3620190184     1.7164342162
  103      H      -9.6753554683    -2.1847463756     2.3586418061
  104      H      -9.1560598187    -1.8726028399     0.7626783223
  105      C      -7.9358752458    -0.8521218849     2.2071475081
  106      C      -7.9614965969    -0.7488968763     3.7363228230
  107      C      -7.5906047924    -1.8227575955     4.5071298192
  108      H      -7.3676462389    -2.7691682239     4.0236265556
  109      C      -7.5755757762    -1.7714112288     5.9272631507
  110      H      -7.3188932031    -2.7038695731     6.4226311883
  111      C      -7.7950302068    -0.4677559098     6.5333345674
  112      H      -7.7309619283    -0.3893419583     7.6145822300
  113      C      -8.0801364030     0.6017659066     5.7147781910
  114      H      -8.2316449117     1.6100138948     6.0894649483
  115      C      -8.1133121944     0.5159593680     4.3105568393
  116      H      -8.2883604027     1.4429073820     3.7721717501
  117      C      -4.1814952541     3.0125616691     0.8409158639
  118      C      -2.8071823084     1.2424692042     1.8496311820
  119      C      -0.8205930688    -0.3190428021    -1.9175168701
  120      C      -6.8871770548     0.9407615385    -2.8980273307
  121      C      -2.8916805470    -3.0527953307    -2.3333759447
  122      C      -4.0043804881     1.9726827584     1.7979718762
  123      C      -5.5969222599    -1.2110445477    -4.0362668184
  124      C      -1.3693335028     2.0304951487    -1.1947524868
  125      C      -4.5175743640    -2.4272739484     1.4684039405
  126      C      -7.2851779264    -0.3592044164    -2.5909934202
  127      C      -6.6324465963    -1.2963615755     1.5063202448
  128      C      -5.2791945239    -2.9272727391     0.4550797370
  129      C      -6.3433919428    -2.4004904048    -2.0934869633
  130      C      -4.3478953924    -1.8874773678    -3.9581609672
  131      C      -4.5250573709    -0.1113447010     2.4275257917
  132      C      -2.0018326809    -1.1901939920    -3.6576969134
  133      C      -7.2439237354     0.0524541415     1.1664557575
  134      C      -7.6666836281     0.3758927970    -0.2584440668
  135      C      -1.8446666228    -2.1915851035    -2.6397250710
  136      C      -3.8511502350     2.4630458465    -3.6020078952
  137      C      -1.9296881903     1.2428945245    -3.3965830618
  138      C      -1.9005415656     2.3059799491    -2.4542726806
  139      C      -1.9255360561     2.5227194020    -0.0368293442
  140      C      -7.1984536612     1.6256449834    -0.6139284840
  141      C      -5.2414903921    -1.3622109785     2.1144901998
  142      C      -1.7768969168     1.4584646325     0.9333779491
  143      C      -6.5396728461    -1.4622375686    -3.1001191813
  144      C      -3.1520868765    -0.0631860764     2.2436732193
  145      C      -4.6116022675    -3.3832148188    -0.7588607060
  146      C      -5.9414749368     2.9398377660    -2.3049550410
  147      C      -0.8866056979     0.6978709229    -0.9160635219
  148      C      -6.4695817803    -2.2349539397     0.3655707431
  149      C      -3.7304151183     3.5090785103    -1.3368329135
  150      C      -5.1442184568    -3.1280155695    -2.0176642403
  151      C      -3.1353440993    -2.3407258522     1.2814683301
  152      C      -3.8340198699     0.1985942779    -4.4678668006
  153      C      -5.2079120320     0.1139479242    -4.3921150892
  154      C      -2.5262329207    -2.7798686893     0.0890627193
  155      C      -6.9011640835     1.9199139325    -1.9422732031
  156      C      -7.5959190564    -0.6646786982    -1.2336919013
  157      C      -5.2870916405     2.3778514428    -3.5199640427
  158      C      -6.3258249478     1.2416225197     1.4298094825
  159      C      -1.4707246314    -0.9201746376     0.7619172991
  160      C      -6.9401567496    -1.8620404705    -0.9235684048
  161      C      -3.2673494719    -3.3214489148    -0.9376997249
  162      C      -5.1297729606     3.4567757675    -1.2063145155
  163      C      -1.1322831308    -1.6224929646    -1.6288215653
  164      C      -3.1134118666     3.2655859416    -0.0706282080
  165      C      -1.3306240898    -0.0118663533    -3.1774521807
  166      C      -2.5120859637    -1.2021882888     1.6979674454
  167      C      -1.4648588570    -1.9416600735    -0.2289788089
  168      C      -5.0516035849     1.1276675140     2.0990599402
  169      C      -6.4276683268     2.2061356669     0.4548308596
  170      C      -3.1286453864     1.3218158248    -4.0668054654
  171      C      -1.1948081249     0.3631026695     0.3747216967
  172      C      -4.1189467782    -2.9383674316    -3.0114009100
  173      C      -5.9246382547     1.1677336007    -3.8836701368
  174      C      -3.2529014949    -1.0610674763    -4.2929505365
  175      C      -5.3771526555     3.1137133786     0.1547899933
  176      C      -3.1016263188     3.0149839480    -2.5167046053
 ----------------------------------------------------------------

    9   -5804.2819640267      8.35E-06 Convergence criterion met
 Total energy in the final basis set = -5804.2819640267

                    Orbital Energies (a.u.)
 --------------------------------------------------------------

 Alpha MOs
 -- Occupied --
-19.193 -19.189 -19.135 -19.129 -10.319 -10.315 -10.254 -10.246
-10.245 -10.244 -10.242 -10.239 -10.239 -10.237 -10.235 -10.231
-10.230 -10.228 -10.228 -10.227 -10.226 -10.225 -10.223 -10.223
-10.222 -10.222 -10.222 -10.222 -10.222 -10.222 -10.221 -10.221
-10.221 -10.221 -10.220 -10.220 -10.220 -10.220 -10.220 -10.219
-10.218 -10.218 -10.218 -10.218 -10.217 -10.217 -10.217 -10.217
-10.217 -10.217 -10.217 -10.217 -10.217 -10.216 -10.216 -10.216
-10.216 -10.216 -10.216 -10.216 -10.216 -10.216 -10.216 -10.215
-10.215 -10.215 -10.215 -10.215 -10.215 -10.215 -10.215 -10.215
-10.214 -10.214 -10.214 -10.214 -10.214 -10.214 -10.214 -10.213
-10.213 -10.213 -10.213 -10.213 -10.213 -10.213 -10.213 -10.213
-10.213 -10.213 -10.212 -10.212 -10.212 -10.212 -10.212 -10.212
-10.212 -10.212 -10.212 -10.212 -10.211 -10.211 -10.211 -10.211
-10.211 -10.211 -10.211 -10.211 -10.211 -10.210 -10.210 -10.210
-10.210 -10.210 -10.210 -10.210 -10.210 -10.209 -10.209 -10.209
-10.209 -10.209 -10.209 -10.209 -10.209 -10.208 -10.208 -10.208
-10.207 -10.207 -10.206 -10.205 -10.205 -10.204 -10.204 -10.204
-10.203 -10.202 -10.202 -10.200 -10.200 -10.200 -10.199 -10.199
-10.199 -10.197 -10.197 -10.196  -1.100  -1.087  -1.011  -1.010
 -0.982  -0.980  -0.965  -0.963  -0.962  -0.960  -0.959  -0.959
 -0.931  -0.929  -0.926  -0.924  -0.924  -0.923  -0.922  -0.921
 -0.921  -0.917  -0.896  -0.891  -0.888  -0.886  -0.886  -0.883
 -0.873  -0.867  -0.854  -0.851  -0.841  -0.841  -0.841  -0.838
 -0.837  -0.837  -0.820  -0.817  -0.803  -0.800  -0.798  -0.796
 -0.795  -0.794  -0.793  -0.792  -0.791  -0.789  -0.784  -0.783
 -0.773  -0.769  -0.768  -0.767  -0.765  -0.764  -0.764  -0.757
 -0.753  -0.751  -0.744  -0.736  -0.735  -0.727  -0.717  -0.714
 -0.714  -0.712  -0.712  -0.711  -0.710  -0.710  -0.709  -0.709
 -0.708  -0.706  -0.705  -0.705  -0.704  -0.699  -0.673  -0.668
 -0.660  -0.660  -0.657  -0.657  -0.646  -0.646  -0.634  -0.627
 -0.625  -0.624  -0.624  -0.623  -0.622  -0.621  -0.618  -0.616
 -0.616  -0.613  -0.612  -0.611  -0.610  -0.610  -0.608  -0.606
 -0.606  -0.605  -0.603  -0.601  -0.570  -0.566  -0.565  -0.562
 -0.561  -0.560  -0.559  -0.557  -0.556  -0.555  -0.554  -0.553
 -0.538  -0.535  -0.534  -0.533  -0.528  -0.526  -0.524  -0.524
 -0.523  -0.521  -0.519  -0.518  -0.516  -0.514  -0.514  -0.513
 -0.508  -0.502  -0.499  -0.495  -0.489  -0.487  -0.486  -0.485
 -0.485  -0.482  -0.481  -0.481  -0.480  -0.477  -0.476  -0.474
 -0.472  -0.470  -0.469  -0.468  -0.467  -0.466  -0.465  -0.465
 -0.463  -0.462  -0.462  -0.461  -0.460  -0.459  -0.458  -0.456
 -0.454  -0.453  -0.453  -0.450  -0.450  -0.446  -0.444  -0.443
 -0.442  -0.441  -0.440  -0.438  -0.438  -0.435  -0.433  -0.432
 -0.431  -0.430  -0.429  -0.429  -0.428  -0.425  -0.424  -0.423
 -0.423  -0.422  -0.421  -0.420  -0.420  -0.419  -0.418  -0.418
 -0.417  -0.416  -0.415  -0.414  -0.414  -0.412  -0.412  -0.411
 -0.411  -0.410  -0.407  -0.406  -0.404  -0.402  -0.397  -0.397
 -0.394  -0.392  -0.392  -0.390  -0.389  -0.386  -0.385  -0.384
 -0.383  -0.376  -0.375  -0.373  -0.370  -0.369  -0.367  -0.367
 -0.366  -0.364  -0.362  -0.361  -0.360  -0.359  -0.357  -0.356
 -0.355  -0.355  -0.355  -0.354  -0.353  -0.352  -0.351  -0.351
 -0.349  -0.347  -0.347  -0.346  -0.345  -0.343  -0.343  -0.342
 -0.340  -0.340  -0.339  -0.337  -0.336  -0.336  -0.334  -0.333
 -0.332  -0.331  -0.330  -0.330  -0.328  -0.326  -0.324  -0.321
 -0.308  -0.307  -0.298  -0.297  -0.289  -0.283  -0.274  -0.270
 -0.269  -0.269  -0.268  -0.267  -0.266  -0.265  -0.264  -0.263
 -0.262  -0.261  -0.259  -0.257  -0.256  -0.256  -0.255  -0.254
 -0.251  -0.248  -0.247  -0.242  -0.222  -0.219  -0.213  -0.212
 -0.210  -0.209  -0.207  -0.206  -0.199  -0.197

          Ground-State Mulliken Net Atomic Charges

     Atom                 Charge (a.u.)
  ----------------------------------------
      1 O                    -0.484316
      2 C                    -0.097277
      3 H                     0.136111
      4 H                     0.120621
      5 H                     0.127979
      6 O                    -0.455260
      7 C                     0.604533
      8 C                    -0.266569
      9 H                     0.136698
     10 H                     0.132142
     11 C                    -0.190403
     12 H                     0.107150
     13 H                     0.117860
     14 C                    -0.187637
     15 H                     0.124679
     16 H                     0.113790
     17 C                     0.005621
     18 C                     0.067260
     19 C                    -0.101472
     20 H                     0.096618
     21 C                    -0.094738
     22 H                     0.092695
     23 C                    -0.082613
     24 H                     0.091847
     25 C                    -0.090390
     26 H                     0.088245
     27 C                    -0.094741
     28 H                     0.094684
     29 C                     0.014821
     30 C                     0.013648
     31 C                     0.014768
     32 C                    -0.010748
     33 C                     0.008698
     34 C                     0.002095
     35 C                     0.002028
     36 C                     0.001077
     37 C                    -0.011753
     38 C                    -0.022662
     39 C                    -0.064099
     40 C                     0.044739
     41 C                    -0.004287
     42 C                    -0.014045
     43 C                    -0.003517
     44 C                     0.015319
     45 C                    -0.099520
     46 C                     0.022033
     47 C                    -0.028036
     48 C                    -0.001626
     49 C                    -0.009643
     50 C                    -0.029908
     51 C                    -0.014071
     52 C                     0.034887
     53 C                     0.028438
     54 C                     0.035259
     55 C                     0.029868
     56 C                    -0.034033
     57 C                    -0.026865
     58 C                    -0.006921
     59 C                     0.017534
     60 C                     0.018896
     61 C                     0.018003
     62 C                    -0.043915
     63 C                    -0.008494
     64 C                    -0.006703
     65 C                    -0.000819
     66 C                    -0.025376
     67 C                    -0.011406
     68 C                    -0.014988
     69 C                    -0.006553
     70 C                     0.031652
     71 C                     0.008625
     72 C                     0.041060
     73 C                     0.033841
     74 C                    -0.009421
     75 C                    -0.006534
     76 C                     0.003310
     77 C                     0.012319
     78 C                     0.005638
     79 C                     0.003393
     80 C                     0.014499
     81 C                    -0.018221
     82 C                     0.015003
     83 C                    -0.055140
     84 C                    -0.005702
     85 C                     0.014665
     86 C                    -0.002927
     87 C                    -0.030899
     88 C                    -0.005400
     89 O                    -0.455963
     90 C                    -0.086325
     91 H                     0.131919
     92 H                     0.136844
     93 H                     0.134960
     94 O                    -0.455809
     95 C                     0.561352
     96 C                    -0.240061
     97 H                     0.131676
     98 H                     0.117136
     99 C                    -0.184368
    100 H                     0.109566
    101 H                     0.119909
    102 C                    -0.190738
    103 H                     0.107362
    104 H                     0.102823
    105 C                     0.002343
    106 C                     0.091391
    107 C                    -0.101783
    108 H                     0.089753
    109 C                    -0.098626
    110 H                     0.098650
    111 C                    -0.088928
    112 H                     0.094628
    113 C                    -0.084526
    114 H                     0.086583
    115 C                    -0.104578
    116 H                     0.097808
    117 C                    -0.011264
    118 C                     0.003548
    119 C                    -0.006169
    120 C                     0.044311
    121 C                     0.000254
    122 C                     0.001729
    123 C                     0.003425
    124 C                     0.011713
    125 C                    -0.003870
    126 C                    -0.041294
    127 C                    -0.089064
    128 C                     0.008390
    129 C                     0.007149
    130 C                    -0.010178
    131 C                    -0.016677
    132 C                    -0.026539
    133 C                    -0.081112
    134 C                     0.013587
    135 C                     0.008086
    136 C                    -0.024361
    137 C                     0.027479
    138 C                    -0.018432
    139 C                    -0.000519
    140 C                     0.018360
    141 C                     0.022354
    142 C                    -0.030397
    143 C                     0.011156
    144 C                    -0.002645
    145 C                     0.025601
    146 C                    -0.042695
    147 C                    -0.013082
    148 C                     0.033070
    149 C                     0.009278
    150 C                    -0.028226
    151 C                     0.015079
    152 C                     0.026547
    153 C                     0.000772
    154 C                    -0.000342
    155 C                     0.018858
    156 C                    -0.023920
    157 C                    -0.030077
    158 C                     0.035026
    159 C                    -0.022105
    160 C                     0.019434
    161 C                    -0.005654
    162 C                     0.005143
    163 C                     0.004703
    164 C                    -0.008199
    165 C                    -0.016318
    166 C                     0.002477
    167 C                    -0.025623
    168 C                     0.008387
    169 C                    -0.000777
    170 C                     0.007641
    171 C                     0.065966
    172 C                    -0.014189
    173 C                     0.006479
    174 C                     0.000799
    175 C                     0.008040
    176 C                     0.010889
  ----------------------------------------
  Sum of atomic charges =     0.000000

                    Cartesian Multipole Moments
 -----------------------------------------------------------------
    Charge (ESU x 10^10)
                 0.0000
    Dipole Moment (Debye)
         X      -1.2319      Y      -1.6471      Z       3.2221
       Tot       3.8226
    Quadrupole Moments (Debye-Ang)
        XX    -750.8458     XY     -22.2130     YY    -811.8150
        XZ     -41.4070     YZ      -0.1370     ZZ    -793.7033

 Total job time:  856.33s(wall), 7292.97s(cpu)
        *  Thank you very much for using Q-Chem.  Have a nice day.  *
