 Q-Chem 4.4, Q-Chem, Inc., Pleasanton, CA (2016)
 Q-Chem 4.4.2 for Intel X86 Linux

User input:
--------------------------------------------------------------
$comment
SP
$end

$rem
MEM_STATIC 5000
MEM_TOTAL 20000
JOBTYPE SP
EXCHANGE B3LYP
BASIS 6-31g(d,p)
$end

$molecule
0 1
O          17.904000    -10.521000     -9.488000
C          19.143000    -10.161000    -10.043000
H          19.271000    -10.419000    -11.102000
H          19.902000    -10.673000     -9.440000
H          19.293000     -9.094000     -9.834000
O          18.038000    -12.728000    -10.141000
C          17.447000    -11.754000     -9.643000
C          16.100000    -11.859000     -8.990000
H          15.426000    -11.191000     -9.540000
H          16.200000    -11.471000     -7.969000
C          15.602000    -13.305000     -8.837000
H          16.280000    -13.906000     -8.217000
H          14.773000    -13.234000     -8.122000
C          15.158000    -13.978000    -10.112000
H          14.348000    -13.370000    -10.534000
H          15.992000    -13.804000    -10.804000
C          14.750000    -15.439000     -9.896000
C          13.470000    -15.624000     -9.160000
C          12.300000    -15.363000     -9.866000
H          12.268000    -15.057000    -10.908000
C          11.045000    -15.455000     -9.256000
H          10.119000    -15.334000     -9.810000
C          10.966000    -15.968000     -7.968000
H          10.011000    -16.105000     -7.469000
C          12.164000    -16.197000     -7.244000
H          12.052000    -16.414000     -6.185000
C          13.411000    -15.949000     -7.799000
H          14.289000    -16.069000     -7.171000
C          16.726000    -20.184000     -8.000000
C          15.111000    -20.949000     -9.569000
C          18.048000    -22.340000    -12.702000
C          20.063000    -16.939000     -9.906000
C          17.835000    -19.442000    -14.648000
C          15.457000    -20.063000     -8.531000
C          20.277000    -17.680000    -12.595000
C          18.097000    -22.670000    -10.274000
C          14.721000    -18.220000    -12.466000
C          19.386000    -16.165000    -10.908000
C          15.166000    -16.535000    -10.888000
C          15.577000    -17.304000    -13.030000
C          18.247000    -16.366000    -12.990000
C          19.927000    -18.546000    -13.694000
C          14.362000    -18.855000    -10.152000
C          19.490000    -20.908000    -13.481000
C          15.835000    -16.425000     -9.549000
C          17.295000    -16.120000     -9.583000
C          18.297000    -20.753000    -14.233000
C          20.711000    -20.331000     -9.765000
C          20.081000    -21.789000    -11.366000
C          19.388000    -22.159000    -10.197000
C          17.197000    -22.196000     -9.302000
C          17.943000    -16.933000     -8.619000
C          14.474000    -17.829000    -11.147000
C          15.923000    -22.019000     -9.957000
C          19.499000    -16.518000    -12.266000
C          14.421000    -20.202000    -10.522000
C          16.513000    -17.728000    -14.009000
C          19.772000    -18.600000     -8.369000
C          17.378000    -22.772000    -11.510000
C          15.948000    -16.320000    -12.116000
C          18.859000    -20.875000     -8.209000
C          17.858000    -17.281000    -13.979000
C          14.782000    -19.576000    -12.867000
C          21.027000    -19.719000    -12.064000
C          21.059000    -18.381000    -11.650000
C          15.671000    -20.011000    -13.839000
C          19.333000    -17.305000     -8.764000
C          17.988000    -15.853000    -10.785000
C          20.662000    -19.047000     -9.393000
C          15.809000    -17.638000     -8.619000
C          15.401000    -21.623000    -12.230000
C          17.341000    -15.919000    -12.094000
C          16.518000    -19.066000    -14.431000
C          18.784000    -19.511000     -7.822000
C          17.394000    -21.633000    -13.686000
C          17.547000    -21.305000     -8.301000
C          19.384000    -21.935000    -12.617000
C          14.612000    -20.517000    -11.849000
C          16.059000    -21.272000    -13.429000
C          15.044000    -18.779000     -8.924000
C          17.088000    -17.819000     -8.032000
C          20.897000    -20.689000    -11.116000
C          16.033000    -22.468000    -11.240000
C          18.684000    -18.373000    -14.353000
C          20.832000    -18.014000    -10.267000
C          20.362000    -19.810000    -13.318000
C          17.509000    -19.080000     -7.673000
C          19.808000    -21.290000     -9.160000
O          12.834000     -9.809000     -5.643000
C          11.404000     -9.637000     -5.724000
H          11.113000     -9.309000     -6.729000
H          10.967000     -8.904000     -5.035000
H          10.900000    -10.594000     -5.541000
O          13.384000     -7.572000     -5.674000
C          13.721000     -8.748000     -5.631000
C          15.102000     -9.272000     -5.719000
H          15.029000    -10.190000     -6.315000
H          15.439000     -9.681000     -4.759000
C          16.084000     -8.202000     -6.269000
H          15.767000     -7.852000     -7.259000
H          15.998000     -7.331000     -5.608000
C          17.561000     -8.722000     -6.498000
H          17.533000     -9.581000     -7.179000
H          18.078000     -7.918000     -7.037000
C          18.425000     -8.901000     -5.220000
C          18.548000     -7.586000     -4.575000
C          17.703000     -7.289000     -3.482000
H          16.928000     -7.999000     -3.210000
C          17.877000     -6.059000     -2.838000
H          17.229000     -5.756000     -2.021000
C          18.871000     -5.130000     -3.299000
H          19.032000     -4.137000     -2.889000
C          19.654000     -5.460000     -4.405000
H          20.349000     -4.697000     -4.742000
C          19.486000     -6.672000     -5.018000
H          20.208000     -6.906000     -5.795000
C          23.162000    -10.718000     -3.158000
C          21.627000    -10.968000     -1.305000
C          21.396000    -15.493000     -1.472000
C          21.314000    -13.023000     -7.290000
C          18.286000    -15.647000     -3.113000
C          22.079000    -10.306000     -2.415000
C          19.819000    -15.232000     -6.412000
C          23.361000    -13.998000     -1.736000
C          17.881000    -11.592000     -2.535000
C          19.949000    -12.972000     -7.147000
C          18.387000    -10.272000     -4.489000
C          17.383000    -12.240000     -3.651000
C          18.096000    -13.584000     -5.991000
C          19.411000    -16.021000     -5.308000
C          19.795000    -10.128000     -2.320000
C          20.563000    -16.552000     -3.271000
C          19.611000     -9.863000     -5.166000
C          20.004000    -10.692000     -6.244000
C          19.437000    -16.129000     -2.502000
C          23.562000    -14.615000     -5.157000
C          22.820000    -15.822000     -3.356000
C          23.652000    -14.748000     -2.876000
C          23.403000    -12.602000     -1.693000
C          21.465000    -10.824000     -6.312000
C          18.561000    -10.435000     -2.969000
C          22.280000    -12.159000     -0.940000
C          19.200000    -14.031000     -6.672000
C          20.248000    -10.896000     -1.273000
C          17.299000    -13.623000     -3.682000
C          23.294000    -12.410000     -6.201000
C          22.200000    -14.397000     -0.995000
C          17.705000    -11.498000     -4.830000
C          24.227000    -12.576000     -3.959000
C          17.686000    -14.307000     -4.834000
C          18.271000    -12.326000     -1.448000
C          21.666000    -16.130000     -5.437000
C          21.225000    -15.317000     -6.511000
C          18.244000    -13.761000     -1.471000
C          22.094000    -11.938000     -6.833000
C          19.270000    -11.800000     -6.691000
C          23.201000    -13.842000     -6.277000
C          20.923000     -9.597000     -4.418000
C          20.137000    -13.217000     -0.506000
C          18.090000    -12.178000     -6.012000
C          17.688000    -14.438000     -2.609000
C          23.808000    -11.810000     -5.052000
C          20.019000    -15.406000     -1.424000
C          23.885000    -11.875000     -2.799000
C          21.710000    -16.216000     -2.586000
C          19.503000    -12.036000     -0.847000
C          19.375000    -14.307000     -0.886000
C          20.915000     -9.664000     -3.040000
C          21.999000    -10.141000     -5.180000
C          22.866000    -15.769000     -4.729000
C          21.571000    -13.223000     -0.638000
C          18.319000    -15.495000     -4.526000
C          22.010000    -14.213000     -6.958000
C          20.518000    -16.537000     -4.676000
C          23.084000    -10.666000     -4.556000
C          24.050000    -13.995000     -4.014000
$end

--------------------------------------------------------------

             Standard Nuclear Orientation (Angstroms)
    I     Atom           X                Y                Z
 ----------------------------------------------------------------
    1      O       1.8416398434     3.2041934302    -3.3101396101
    2      C       2.0085039983     2.5181251453    -4.5243112052
    3      H       1.1631620538     2.5917846428    -5.2202999087
    4      H       2.1797661358     1.4692762178    -4.2552030347
    5      H       2.9592523516     2.8543685722    -4.9575408516
    6      O      -0.1739743934     2.2060320516    -2.8039903134
    7      C       0.7392498421     3.0245593981    -2.5990623292
    8      C       0.8004056483     3.8957280856    -1.3787475807
    9      H       0.7958355812     4.9352850772    -1.7284622869
   10      H       1.7646624903     3.7084272189    -0.8907802376
   11      C      -0.2687203076     3.5573871285    -0.3276414551
   12      H      -0.1689327909     2.5270339480     0.0380083433
   13      H       0.0704309217     4.0694863350     0.5813348077
   14      C      -1.6783711264     3.9624801681    -0.6804504659
   15      H      -1.6730908765     5.0480448781    -0.8397281455
   16      H      -1.8214938228     3.5590534248    -1.6911228939
   17      C      -2.6990549699     3.5244982727     0.3750197378
   18      C      -2.6291880928     4.2775448409     1.6565658687
   19      C      -3.1375811572     5.5725094018     1.6488019791
   20      H      -3.5907874771     6.0480686595     0.7834284042
   21      C      -3.0752853498     6.3865575765     2.7841582235
   22      H      -3.5375055992     7.3683811607     2.8216800914
   23      C      -2.6390368601     5.8307710807     3.9796257581
   24      H      -2.6184568843     6.4075480697     4.8997886620
   25      C      -2.0896416211     4.5231397035     3.9703493003
   26      H      -1.5902302962     4.2047687920     4.8815804956
   27      C      -2.0034578200     3.7758863013     2.8047066856
   28      H      -1.5028786557     2.8128104825     2.8443736441
   29      C      -4.5520198642    -0.9630910712     2.9132238235
   30      C      -6.4643373057     0.4471027565     3.0112359218
   31      C      -8.8903679139    -1.7498347352    -0.0975226964
   32      C      -2.6944137022    -1.5834042220    -1.7195875197
   33      C      -8.0581081600     0.3986041145    -2.7285383199
   34      C      -5.0713422492     0.2948547345     3.1474024099
   35      C      -4.9273327708    -1.3467190232    -3.3880150877
   36      C      -7.5580468317    -2.6501880524     1.7520095250
   37      C      -6.4063305685     2.9329040112    -0.1207885578
   38      C      -2.9129552612    -0.3595601284    -2.4378174423
   39      C      -4.0570414476     2.9330053703    -0.0303749747
   40      C      -5.9167303126     2.8361479005    -1.4017326801
   41      C      -4.6413278567     1.0808676054    -3.2190613958
   42      C      -6.3457708573    -1.1638611473    -3.5747057192
   43      C      -5.4573084794     2.2530402491     2.0061445252
   44      C      -8.0370088995    -2.0162346567    -2.0818710717
   45      C      -2.9729610505     2.0495956053     0.5145460102
   46      C      -2.4644437404     1.0045269486    -0.4208804423
   47      C      -8.6578151193    -0.7407313652    -2.0602148747
   48      C      -4.9619343635    -3.8114805066    -0.3633150101
   49      C      -7.1979168866    -3.5418152253    -0.4796240487
   50      C      -6.8619545836    -3.4874987813     0.8870833285
   51      C      -6.7718205220    -1.9571333755     2.6906166871
   52      C      -2.3051502777    -0.2034791388     0.3040443024
   53      C      -5.3205867659     2.9473018895     0.7593273983
   54      C      -7.3309233648    -0.6320663309     2.8132190463
   55      C      -4.0239882055    -0.2337465715    -3.2929892060
   56      C      -6.6738812823     1.6543939412     2.3472650512
   57      C      -6.6631519002     2.1398037053    -2.3877715106
   58      C      -2.9863219325    -2.5956821234     0.3042835324
   59      C      -8.5803514801    -1.7513201700     1.3025757302
   60      C      -4.5263407481     2.7467626837    -1.4126936168
   61      C      -4.7475543779    -2.9980092495     1.9689117662
   62      C      -6.0330867647     1.2403177546    -3.2842518225
   63      C      -7.6490797679     2.3371483979     0.2015585788
   64      C      -5.9272193395    -3.1117002241    -2.4461816576
   65      C      -4.6698271212    -2.6051238650    -2.7997480611
   66      C      -8.4089344952     1.6721705258    -0.7496276401
   67      C      -2.3806686101    -1.4888636149    -0.3544332827
   68      C      -2.8974125097     0.9095087182    -1.7624659150
   69      C      -3.7883020679    -3.2523605126    -0.6786133878
   70      C      -3.2710463212     1.2120110570     1.7581465473
   71      C      -8.6140077166     0.6457334970     1.2911312873
   72      C      -3.9251915070     1.7875913610    -2.3184220329
   73      C      -7.9179410624     1.6050306845    -2.0593282512
   74      C      -3.5108803621    -2.3827825751     1.6402424525
   75      C      -9.1417542491    -0.5827899042    -0.7835491339
   76      C      -5.3981544006    -2.0995879199     2.7961159278
   77      C      -8.2576298442    -2.6782097659    -0.9305343035
   78      C      -7.7206376664     1.7255055306     1.4551444235
   79      C      -8.9906139568     0.6196458269    -0.0694763612
   80      C      -4.4670367722     1.3743032501     2.4816098051
   81      C      -2.7576585019    -0.0995474866     1.5866293946
   82      C      -6.0568253880    -3.7502956007    -1.2495604907
   83      C      -8.4648446297    -0.5721670066     2.0579544331
   84      C      -6.9038923764     0.1348537954    -3.4693545549
   85      C      -3.5562932418    -2.6373385777    -1.8735129334
   86      C      -6.9417118788    -2.2468016455    -2.9419410108
   87      C      -3.3652847278    -1.1645901840     2.2133010967
   88      C      -5.4665875196    -3.7087452574     0.9916335722
   89      O       3.7799463738     6.6234574985     1.7443109065
   90      C       3.5543652329     7.9094061777     2.3579020923
   91      H       3.0868705439     8.5985360265     1.6445727383
   92      H       4.4457541237     8.4285236308     2.7306243954
   93      H       2.8628948445     7.8057190072     3.2031663544
   94      O       5.5202509573     7.2693501898     0.3798357005
   95      C       4.7538703501     6.4059699055     0.7868114365
   96      C       4.6014266256     5.0375048165     0.2450133089
   97      H       3.5269904809     4.8218450387     0.2934574126
   98      H       4.9900048018     4.2839324443     0.9404165594
   99      C       5.2397123634     4.9079140504    -1.1647815521
  100      H       4.7926097735     5.6248805063    -1.8641722692
  101      H       6.2881353946     5.2130176204    -1.0614425014
  102      C       5.0194739406     3.5028623527    -1.8588238879
  103      H       3.9430812290     3.3033400210    -1.9220344065
  104      H       5.3717418257     3.6237647850    -2.8910622029
  105      C       5.8926204653     2.3354097437    -1.3235757659
  106      C       7.3010482202     2.6892478780    -1.5505313430
  107      C       8.0466303205     3.2158514655    -0.4717918038
  108      H       7.5373174170     3.4303224280     0.4627196047
  109      C       9.4026041649     3.4865064859    -0.6862511086
  110      H      10.0160413100     3.9331127517     0.0905627123
  111      C       9.9970789408     3.2526717401    -1.9729208612
  112      H      11.0252519319     3.4859032335    -2.2347096518
  113      C       9.2058520179     2.7648350438    -3.0127286869
  114      H       9.6954736973     2.6608593797    -3.9761718208
  115      C       7.8843501501     2.4890814334    -2.7879404318
  116      H       7.3629462725     2.0035889374    -3.6078209308
  117      C       6.8786630275    -3.0487980872    -1.4982986883
  118      C       7.5671044057    -2.4388567357     0.7391896394
  119      C       4.0836377923    -4.4059042005     2.8729796067
  120      C       2.1333587629    -1.4591689138    -2.3681949619
  121      C       2.2607227348    -1.4447965518     3.4184327999
  122      C       7.4333472756    -2.1691730858    -0.5964853806
  123      C       0.7613280873    -1.5563069548     0.0800056072
  124      C       5.4248801804    -5.2210092064     0.9487606259
  125      C       5.5300824008     0.6990963499     2.1315199823
  126      C       1.9767869142    -0.3502770162    -1.5731358349
  127      C       5.3475912667     1.4880052879    -0.1402352144
  128      C       4.2299581268     1.1151063326     1.9079655897
  129      C       1.8831769689     0.5460496727     0.5082878714
  130      C       0.8070570397    -1.9224351573     1.4480918626
  131      C       7.1465232529    -0.2270002041     0.5880235799
  132      C       1.9708880590    -3.7174097639     2.5352889561
  133      C       5.4687195626     0.8733137485    -1.4560118852
  134      C       4.2468233902     0.4556829256    -2.0359500196
  135      C       2.5413997963    -2.8044634517     3.4729516825
  136      C       2.8086847257    -4.7023974171    -1.2897420331
  137      C       2.9261820030    -5.1976322775     0.9445253687
  138      C       4.1997316867    -5.4982005192     0.3413421998
  139      C       6.4879305536    -4.5875809470     0.2998218428
  140      C       4.4122964923    -0.7934205371    -2.7902233069
  141      C       6.2437710102     0.8274571681     0.9217360888
  142      C       7.0634670431    -3.6627523072     1.2151560638
  143      C       1.3471148821    -0.3857979376    -0.3441694414
  144      C       7.3515057918    -1.2762273644     1.4530938226
  145      C       3.1753934080     0.5191810218     2.5813690927
  146      C       3.7011096504    -3.1061194760    -2.9265864022
  147      C       5.3655602156    -4.6718042876     2.2720361449
  148      C       4.0833015384     1.5508136842     0.5541044635
  149      C       5.2195274511    -4.6016869190    -1.7508762313
  150      C       2.0111743485     0.1984787909     1.8838928848
  151      C       5.7726335746    -0.2931435122     3.0420439984
  152      C       1.1166272743    -3.7972809600     0.2222588863
  153      C       0.9298512983    -2.7282377340    -0.6894358629
  154      C       4.6969392483    -0.9637046582     3.7156258167
  155      C       3.3892709972    -1.7048879073    -2.9655061335
  156      C       2.9900886340     0.6493928616    -1.4449143073
  157      C       2.5796261890    -3.7055519405    -2.2572549698
  158      C       6.4214787701    -0.2939311864    -1.7413067405
  159      C       6.1157976541    -2.5368658962     3.1476341410
  160      C       2.9022711556     1.2423479207    -0.1654545040
  161      C       3.3491502848    -0.5076839947     3.5206410372
  162      C       4.9905593787    -3.5682166078    -2.6654683468
  163      C       3.8897997260    -3.2422192742     3.5901031639
  164      C       6.4108389425    -4.3120969378    -1.0794005628
  165      C       2.8999218668    -4.6963812671     2.2591712639
  166      C       6.6315324142    -1.3404172435     2.6833860623
  167      C       4.9096053004    -2.3305931481     3.7923787100
  168      C       7.2585761432    -0.7167723651    -0.7294221989
  169      C       5.7560176050    -1.2266538452    -2.5907453077
  170      C       2.0899804019    -4.8143790983    -0.0772074159
  171      C       6.3270173421    -3.6838701299     2.3028954055
  172      C       1.4688159066    -0.9910554739     2.3285866596
  173      C       1.6182068690    -2.7085212472    -1.9386867858
  174      C       1.0670394598    -3.2684504034     1.5566326312
  175      C       5.9996132136    -2.5566170851    -2.4720652341
  176      C       4.1035225716    -5.1315860672    -1.0286193507
 ----------------------------------------------------------------

    9   -5804.2893702968      8.55E-06 Convergence criterion met
 Total energy in the final basis set = -5804.2893702968

                    Orbital Energies (a.u.)
 --------------------------------------------------------------

 Alpha MOs
 -- Occupied --
-19.212 -19.192 -19.142 -19.142 -10.324 -10.322 -10.252 -10.248
-10.241 -10.238 -10.236 -10.233 -10.232 -10.231 -10.231 -10.231
-10.231 -10.226 -10.224 -10.223 -10.223 -10.222 -10.222 -10.222
-10.221 -10.221 -10.221 -10.221 -10.221 -10.221 -10.221 -10.220
-10.220 -10.219 -10.219 -10.219 -10.219 -10.219 -10.219 -10.219
-10.219 -10.219 -10.218 -10.218 -10.218 -10.218 -10.217 -10.217
-10.217 -10.217 -10.217 -10.217 -10.216 -10.216 -10.216 -10.216
-10.215 -10.215 -10.215 -10.215 -10.215 -10.215 -10.214 -10.214
-10.214 -10.214 -10.214 -10.214 -10.214 -10.213 -10.213 -10.212
-10.212 -10.212 -10.212 -10.212 -10.212 -10.212 -10.211 -10.211
-10.211 -10.211 -10.211 -10.211 -10.211 -10.211 -10.210 -10.210
-10.210 -10.210 -10.210 -10.210 -10.210 -10.209 -10.209 -10.209
-10.209 -10.209 -10.209 -10.209 -10.209 -10.209 -10.209 -10.208
-10.208 -10.208 -10.208 -10.208 -10.208 -10.208 -10.208 -10.208
-10.208 -10.207 -10.207 -10.207 -10.206 -10.206 -10.206 -10.206
-10.206 -10.206 -10.206 -10.206 -10.205 -10.205 -10.205 -10.205
-10.204 -10.204 -10.203 -10.203 -10.202 -10.201 -10.201 -10.201
-10.201 -10.200 -10.198 -10.198 -10.197 -10.196 -10.196 -10.196
-10.195 -10.194 -10.194 -10.190  -1.122  -1.088  -1.015  -1.011
 -0.986  -0.978  -0.969  -0.966  -0.962  -0.960  -0.959  -0.954
 -0.939  -0.930  -0.929  -0.926  -0.924  -0.924  -0.922  -0.918
 -0.918  -0.915  -0.900  -0.891  -0.890  -0.887  -0.884  -0.883
 -0.877  -0.873  -0.860  -0.853  -0.842  -0.841  -0.840  -0.837
 -0.833  -0.827  -0.823  -0.819  -0.809  -0.807  -0.801  -0.797
 -0.797  -0.794  -0.793  -0.790  -0.787  -0.787  -0.786  -0.779
 -0.773  -0.772  -0.771  -0.770  -0.767  -0.766  -0.762  -0.761
 -0.757  -0.754  -0.751  -0.745  -0.737  -0.728  -0.720  -0.717
 -0.714  -0.713  -0.713  -0.711  -0.710  -0.709  -0.708  -0.708
 -0.706  -0.706  -0.705  -0.702  -0.701  -0.698  -0.675  -0.668
 -0.663  -0.661  -0.653  -0.652  -0.652  -0.643  -0.634  -0.631
 -0.628  -0.627  -0.624  -0.623  -0.620  -0.620  -0.619  -0.617
 -0.615  -0.614  -0.614  -0.612  -0.609  -0.609  -0.609  -0.606
 -0.605  -0.604  -0.603  -0.597  -0.574  -0.570  -0.565  -0.564
 -0.562  -0.559  -0.558  -0.558  -0.556  -0.552  -0.551  -0.549
 -0.540  -0.539  -0.532  -0.529  -0.528  -0.526  -0.524  -0.523
 -0.521  -0.521  -0.518  -0.516  -0.515  -0.513  -0.513  -0.509
 -0.508  -0.507  -0.507  -0.504  -0.501  -0.494  -0.491  -0.488
 -0.487  -0.484  -0.484  -0.482  -0.481  -0.479  -0.477  -0.475
 -0.475  -0.473  -0.470  -0.470  -0.469  -0.468  -0.467  -0.466
 -0.465  -0.463  -0.463  -0.462  -0.459  -0.458  -0.458  -0.457
 -0.456  -0.456  -0.453  -0.451  -0.447  -0.446  -0.444  -0.442
 -0.442  -0.440  -0.439  -0.439  -0.436  -0.436  -0.435  -0.433
 -0.431  -0.431  -0.429  -0.427  -0.426  -0.426  -0.426  -0.424
 -0.423  -0.423  -0.422  -0.421  -0.420  -0.418  -0.418  -0.418
 -0.417  -0.417  -0.416  -0.415  -0.414  -0.414  -0.412  -0.410
 -0.409  -0.408  -0.407  -0.406  -0.404  -0.402  -0.396  -0.394
 -0.394  -0.391  -0.391  -0.389  -0.388  -0.384  -0.383  -0.382
 -0.378  -0.375  -0.373  -0.372  -0.371  -0.368  -0.366  -0.365
 -0.364  -0.364  -0.362  -0.361  -0.361  -0.359  -0.358  -0.357
 -0.356  -0.355  -0.354  -0.354  -0.353  -0.352  -0.352  -0.350
 -0.350  -0.349  -0.348  -0.347  -0.345  -0.343  -0.343  -0.342
 -0.342  -0.341  -0.340  -0.339  -0.337  -0.336  -0.335  -0.333
 -0.333  -0.331  -0.330  -0.330  -0.329  -0.324  -0.324  -0.315
 -0.309  -0.307  -0.306  -0.300  -0.292  -0.281  -0.276  -0.274
 -0.274  -0.271  -0.269  -0.266  -0.266  -0.264  -0.263  -0.262
 -0.261  -0.260  -0.259  -0.258  -0.257  -0.254  -0.252  -0.251
 -0.250  -0.246  -0.246  -0.242  -0.223  -0.216  -0.213  -0.211
 -0.207  -0.206  -0.205  -0.203  -0.200  -0.193

          Ground-State Mulliken Net Atomic Charges

     Atom                 Charge (a.u.)
  ----------------------------------------
      1 O                    -0.437261
      2 C                    -0.096402
      3 H                     0.135974
      4 H                     0.132357
      5 H                     0.121950
      6 O                    -0.494741
      7 C                     0.629179
      8 C                    -0.291446
      9 H                     0.129488
     10 H                     0.138908
     11 C                    -0.176284
     12 H                     0.114070
     13 H                     0.097488
     14 C                    -0.188707
     15 H                     0.097691
     16 H                     0.136602
     17 C                     0.020313
     18 C                     0.092594
     19 C                    -0.102649
     20 H                     0.090105
     21 C                    -0.090602
     22 H                     0.088588
     23 C                    -0.081949
     24 H                     0.087351
     25 C                    -0.098272
     26 H                     0.086906
     27 C                    -0.097609
     28 H                     0.099923
     29 C                     0.002205
     30 C                     0.016332
     31 C                     0.002810
     32 C                    -0.004141
     33 C                    -0.019601
     34 C                    -0.036775
     35 C                     0.006380
     36 C                     0.001026
     37 C                     0.013181
     38 C                    -0.006161
     39 C                    -0.095793
     40 C                    -0.004055
     41 C                    -0.008880
     42 C                     0.007654
     43 C                    -0.004943
     44 C                     0.033114
     45 C                    -0.097144
     46 C                     0.042326
     47 C                    -0.011281
     48 C                    -0.005736
     49 C                    -0.024127
     50 C                     0.012805
     51 C                    -0.012262
     52 C                     0.013333
     53 C                     0.044626
     54 C                     0.032525
     55 C                    -0.021143
     56 C                    -0.006492
     57 C                    -0.006634
     58 C                    -0.047304
     59 C                    -0.000654
     60 C                     0.021852
     61 C                    -0.012675
     62 C                    -0.003650
     63 C                    -0.013397
     64 C                    -0.001647
     65 C                    -0.023889
     66 C                     0.012131
     67 C                    -0.013315
     68 C                     0.029344
     69 C                     0.036911
     70 C                     0.006052
     71 C                    -0.011611
     72 C                     0.014673
     73 C                     0.009549
     74 C                    -0.018598
     75 C                    -0.003182
     76 C                     0.007775
     77 C                    -0.006887
     78 C                     0.004992
     79 C                     0.006019
     80 C                     0.006297
     81 C                     0.001098
     82 C                     0.013777
     83 C                    -0.044936
     84 C                    -0.005221
     85 C                     0.010875
     86 C                    -0.009907
     87 C                     0.036119
     88 C                    -0.008245
     89 O                    -0.481452
     90 C                    -0.085004
     91 H                     0.122532
     92 H                     0.129834
     93 H                     0.125551
     94 O                    -0.472690
     95 C                     0.614705
     96 C                    -0.278217
     97 H                     0.137396
     98 H                     0.139354
     99 C                    -0.184407
    100 H                     0.111814
    101 H                     0.135131
    102 C                    -0.208537
    103 H                     0.121502
    104 H                     0.105501
    105 C                     0.009783
    106 C                     0.088021
    107 C                    -0.091874
    108 H                     0.095977
    109 C                    -0.104279
    110 H                     0.093473
    111 C                    -0.082245
    112 H                     0.090731
    113 C                    -0.083921
    114 H                     0.091092
    115 C                    -0.097374
    116 H                     0.086949
    117 C                     0.014268
    118 C                    -0.014282
    119 C                     0.021527
    120 C                    -0.015108
    121 C                    -0.029675
    122 C                     0.000357
    123 C                    -0.007135
    124 C                    -0.014071
    125 C                     0.020929
    126 C                     0.047487
    127 C                    -0.086387
    128 C                     0.024374
    129 C                    -0.025264
    130 C                    -0.010147
    131 C                     0.015603
    132 C                     0.002359
    133 C                    -0.078606
    134 C                     0.043041
    135 C                    -0.010936
    136 C                     0.023157
    137 C                     0.015599
    138 C                    -0.016470
    139 C                     0.008498
    140 C                    -0.018253
    141 C                     0.010360
    142 C                    -0.002662
    143 C                     0.042626
    144 C                     0.015410
    145 C                    -0.001151
    146 C                    -0.006752
    147 C                    -0.039405
    148 C                     0.032526
    149 C                     0.009944
    150 C                     0.000353
    151 C                    -0.011740
    152 C                    -0.033084
    153 C                     0.018730
    154 C                    -0.010024
    155 C                     0.002081
    156 C                    -0.031638
    157 C                    -0.014201
    158 C                     0.025885
    159 C                     0.005669
    160 C                    -0.062036
    161 C                    -0.020573
    162 C                    -0.005179
    163 C                     0.021491
    164 C                    -0.027454
    165 C                     0.005144
    166 C                    -0.014931
    167 C                    -0.001308
    168 C                    -0.025715
    169 C                     0.015405
    170 C                    -0.010452
    171 C                     0.043342
    172 C                     0.016670
    173 C                    -0.010551
    174 C                     0.018999
    175 C                     0.001151
    176 C                     0.003805
  ----------------------------------------
  Sum of atomic charges =     0.000000

                    Cartesian Multipole Moments
 -----------------------------------------------------------------
    Charge (ESU x 10^10)
                 0.0000
    Dipole Moment (Debye)
         X       3.9359      Y       4.1737      Z      -0.3453
       Tot       5.7472
    Quadrupole Moments (Debye-Ang)
        XX    -819.1890     XY      -5.4707     YY    -795.0781
        XZ     -11.6006     YZ       5.5817     ZZ    -791.2362

 Total job time:  873.89s(wall), 7476.58s(cpu)
        *  Thank you very much for using Q-Chem.  Have a nice day.  *
