 Q-Chem 4.4, Q-Chem, Inc., Pleasanton, CA (2016)
 Q-Chem 4.4.2 for Intel X86 Linux

User input:
--------------------------------------------------------------
$comment
SP
$end

$rem
MEM_STATIC 5000
MEM_TOTAL 20000
JOBTYPE SP
EXCHANGE B3LYP
BASIS 6-31g(d,p)
$end

$molecule
0 1
O          27.790000     -4.823000      0.418000
C          28.242000     -5.072000      1.761000
H          28.850000     -5.975000      1.893000
H          27.384000     -5.214000      2.429000
H          28.792000     -4.189000      2.110000
O          29.761000     -5.613000     -0.584000
C          28.655000     -5.108000     -0.664000
C          27.904000     -4.770000     -1.930000
H          27.909000     -3.673000     -1.915000
H          26.896000     -5.202000     -1.920000
C          28.576000     -5.236000     -3.295000
H          29.589000     -4.863000     -3.491000
H          28.713000     -6.324000     -3.323000
C          27.730000     -4.755000     -4.497000
H          26.779000     -5.299000     -4.441000
H          27.481000     -3.693000     -4.380000
C          28.270000     -4.958000     -5.897000
C          29.669000     -4.355000     -6.016000
C          30.832000     -5.141000     -5.880000
H          30.809000     -6.215000     -5.719000
C          32.096000     -4.520000     -5.741000
H          32.925000     -5.197000     -5.559000
C          32.215000     -3.139000     -5.881000
H          33.177000     -2.639000     -5.818000
C          31.028000     -2.355000     -5.844000
H          31.179000     -1.288000     -5.982000
C          29.795000     -2.970000     -5.957000
H          28.870000     -2.401000     -5.942000
C          27.286000     -4.815000    -11.244000
C          28.924000     -6.586000    -11.032000
C          26.133000    -10.022000    -12.007000
C          23.266000     -5.604000     -8.223000
C          25.594000    -10.815000     -8.662000
C          28.453000     -5.315000    -10.672000
C          23.012000     -8.389000     -8.092000
C          26.304000     -7.780000    -13.001000
C          28.702000     -8.400000     -7.487000
C          23.766000     -6.295000     -7.069000
C          27.956000     -6.295000     -6.618000
C          27.573000     -8.638000     -6.670000
C          24.829000     -8.192000     -6.516000
C          23.489000     -9.618000     -8.471000
C          29.150000     -6.407000     -8.844000
C          24.291000    -10.341000    -10.666000
C          27.297000     -5.051000     -7.070000
C          25.814000     -4.960000     -7.082000
C          25.459000    -10.835000    -10.080000
C          23.273000     -6.608000    -11.669000
C          24.113000     -8.629000    -12.276000
C          24.931000     -7.668000    -12.853000
C          27.169000     -6.711000    -12.726000
C          25.371000     -4.314000     -8.237000
C          28.826000     -6.979000     -7.593000
C          28.302000     -7.285000    -12.113000
C          23.663000     -7.679000     -7.067000
C          29.345000     -7.277000     -9.926000
C          26.681000     -9.649000     -6.992000
C          23.911000     -4.760000    -10.231000
C          26.960000     -8.987000    -12.593000
C          27.055000     -7.385000     -6.159000
C          25.272000     -5.268000    -12.204000
C          25.302000     -9.407000     -6.928000
C          28.916000     -9.210000     -8.638000
C          22.646000     -8.568000    -10.330000
C          22.441000     -7.733000     -9.170000
C          27.994000    -10.291000     -8.943000
C          24.102000     -4.668000     -8.818000
C          25.045000     -5.976000     -6.461000
C          23.092000     -5.816000    -10.514000
C          27.618000     -4.517000     -8.499000
C          28.583000     -9.376000    -10.900000
C          25.655000     -7.153000     -6.069000
C          26.859000    -10.462000     -8.127000
C          25.003000     -4.518000    -11.050000
C          26.573000    -10.743000    -10.909000
C          26.647000     -5.491000    -12.234000
C          24.666000     -9.838000    -11.911000
C          29.186000     -8.661000     -9.876000
C          27.858000    -10.393000    -10.344000
C          28.567000     -5.230000     -9.291000
C          26.459000     -4.008000     -9.114000
C          23.073000     -7.990000    -11.567000
C          28.193000     -8.681000    -12.075000
C          24.611000    -10.176000     -7.872000
C          22.730000     -6.360000     -9.258000
C          23.304000     -9.734000     -9.815000
C          26.269000     -4.209000    -10.499000
C          24.419000     -6.351000    -12.463000
O          12.834000     -9.809000     -5.643000
C          11.404000     -9.637000     -5.724000
H          11.113000     -9.309000     -6.729000
H          10.967000     -8.904000     -5.035000
H          10.900000    -10.594000     -5.541000
O          13.384000     -7.572000     -5.674000
C          13.721000     -8.748000     -5.631000
C          15.102000     -9.272000     -5.719000
H          15.029000    -10.190000     -6.315000
H          15.439000     -9.681000     -4.759000
C          16.084000     -8.202000     -6.269000
H          15.767000     -7.852000     -7.259000
H          15.998000     -7.331000     -5.608000
C          17.561000     -8.722000     -6.498000
H          17.533000     -9.581000     -7.179000
H          18.078000     -7.918000     -7.037000
C          18.425000     -8.901000     -5.220000
C          18.548000     -7.586000     -4.575000
C          17.703000     -7.289000     -3.482000
H          16.928000     -7.999000     -3.210000
C          17.877000     -6.059000     -2.838000
H          17.229000     -5.756000     -2.021000
C          18.871000     -5.130000     -3.299000
H          19.032000     -4.137000     -2.889000
C          19.654000     -5.460000     -4.405000
H          20.349000     -4.697000     -4.742000
C          19.486000     -6.672000     -5.018000
H          20.208000     -6.906000     -5.795000
C          23.162000    -10.718000     -3.158000
C          21.627000    -10.968000     -1.305000
C          21.396000    -15.493000     -1.472000
C          21.314000    -13.023000     -7.290000
C          18.286000    -15.647000     -3.113000
C          22.079000    -10.306000     -2.415000
C          19.819000    -15.232000     -6.412000
C          23.361000    -13.998000     -1.736000
C          17.881000    -11.592000     -2.535000
C          19.949000    -12.972000     -7.147000
C          18.387000    -10.272000     -4.489000
C          17.383000    -12.240000     -3.651000
C          18.096000    -13.584000     -5.991000
C          19.411000    -16.021000     -5.308000
C          19.795000    -10.128000     -2.320000
C          20.563000    -16.552000     -3.271000
C          19.611000     -9.863000     -5.166000
C          20.004000    -10.692000     -6.244000
C          19.437000    -16.129000     -2.502000
C          23.562000    -14.615000     -5.157000
C          22.820000    -15.822000     -3.356000
C          23.652000    -14.748000     -2.876000
C          23.403000    -12.602000     -1.693000
C          21.465000    -10.824000     -6.312000
C          18.561000    -10.435000     -2.969000
C          22.280000    -12.159000     -0.940000
C          19.200000    -14.031000     -6.672000
C          20.248000    -10.896000     -1.273000
C          17.299000    -13.623000     -3.682000
C          23.294000    -12.410000     -6.201000
C          22.200000    -14.397000     -0.995000
C          17.705000    -11.498000     -4.830000
C          24.227000    -12.576000     -3.959000
C          17.686000    -14.307000     -4.834000
C          18.271000    -12.326000     -1.448000
C          21.666000    -16.130000     -5.437000
C          21.225000    -15.317000     -6.511000
C          18.244000    -13.761000     -1.471000
C          22.094000    -11.938000     -6.833000
C          19.270000    -11.800000     -6.691000
C          23.201000    -13.842000     -6.277000
C          20.923000     -9.597000     -4.418000
C          20.137000    -13.217000     -0.506000
C          18.090000    -12.178000     -6.012000
C          17.688000    -14.438000     -2.609000
C          23.808000    -11.810000     -5.052000
C          20.019000    -15.406000     -1.424000
C          23.885000    -11.875000     -2.799000
C          21.710000    -16.216000     -2.586000
C          19.503000    -12.036000     -0.847000
C          19.375000    -14.307000     -0.886000
C          20.915000     -9.664000     -3.040000
C          21.999000    -10.141000     -5.180000
C          22.866000    -15.769000     -4.729000
C          21.571000    -13.223000     -0.638000
C          18.319000    -15.495000     -4.526000
C          22.010000    -14.213000     -6.958000
C          20.518000    -16.537000     -4.676000
C          23.084000    -10.666000     -4.556000
C          24.050000    -13.995000     -4.014000
$end

--------------------------------------------------------------

             Standard Nuclear Orientation (Angstroms)
    I     Atom           X                Y                Z
 ----------------------------------------------------------------
    1      O       3.4221278189    -7.8095728319     3.4790232518
    2      C       3.1226828293    -9.2156092059     3.4211577771
    3      H       3.0420552825    -9.6383811746     2.4125646673
    4      H       2.1492184501    -9.4147606453     3.8851166187
    5      H       3.8829520937    -9.7551299483     3.9998615132
    6      O       4.8544040035    -7.8545044770     1.6190471557
    7      C       4.3255031533    -7.2584052270     2.5407795327
    8      C       4.4191821391    -5.7799230758     2.8345749993
    9      H       5.0107086932    -5.7655865179     3.7584525880
   10      H       3.4233307054    -5.3344768463     2.9470275607
   11      C       5.1858169183    -4.8936434818     1.7581250020
   12      H       6.2234326142    -5.1781694598     1.5433864736
   13      H       4.7108848926    -4.9618740485     0.7716762396
   14      C       5.2613146031    -3.4240501522     2.2340205212
   15      H       4.2304735844    -3.0487853177     2.2380327730
   16      H       5.6044595846    -3.3836166723     3.2752460757
   17      C       6.0840556171    -2.4385363528     1.4311078392
   18      C       7.5075642460    -2.9635125822     1.2494649421
   19      C       7.9062989000    -3.6432685451     0.0799336229
   20      H       7.2475124302    -3.8046342461    -0.7685282193
   21      C       9.1409894997    -4.3339820551     0.0465874071
   22      H       9.3300960272    -4.8970885420    -0.8621720802
   23      C      10.0301778747    -4.2272386192     1.1137668075
   24      H      11.0007620936    -4.7142546743     1.0998156037
   25      C       9.5472733456    -3.6897610102     2.3397011595
   26      H      10.2899335684    -3.6081574498     3.1284537522
   27      C       8.3293790537    -3.0362606786     2.3705849787
   28      H       7.9355700905    -2.6063029446     3.2869156218
   29      C       7.4309922531     2.7591521599     0.5657120779
   30      C       7.6257253396     1.7655154175    -1.6341047439
   31      C       4.0336613246     3.8263860088    -3.4770074862
   32      C       2.8439940811     1.9191044467     2.6060869477
   33      C       1.9417789766     1.0894664847    -2.9853828731
   34      C       7.8235509531     1.6989475474    -0.2472681474
   35      C       1.0971466820     1.8444395758     0.4195711528
   36      C       5.7487353000     4.6894435335    -1.9415941972
   37      C       5.1448786066    -1.3231032581    -2.0953413032
   38      C       2.4126166427     0.6463099564     2.1029918363
   39      C       5.3956017471    -1.6908487315     0.2593568035
   40      C       3.8595778437    -1.5316157265    -1.5446158732
   41      C       1.9783859464    -0.3870969466     0.1593095384
   42      C       0.9336966750     1.9262181845    -0.9399167487
   43      C       7.0701240760    -0.2732181262    -0.9974464575
   44      C       1.9711192334     3.4809590682    -2.5180464075
   45      C       5.7426032986    -0.9515865648     1.4919160808
   46      C       4.6805439754    -0.2527272654     2.2609022143
   47      C       2.3624133244     2.4080483123    -3.3226627410
   48      C       3.6015146533     4.9424839168     0.8261093742
   49      C       3.3684688443     5.0368587630    -1.4311617747
   50      C       4.7206545636     5.1962118033    -1.1632543485
   51      C       6.8744375895     4.0749258999    -1.3743434295
   52      C       5.1308415988     0.9933683638     2.6991575430
   53      C       6.0466856508    -1.2477125636    -0.9876801194
   54      C       7.1859741148     2.9920868241    -2.2224817020
   55      C       1.5857178684     0.6543888302     0.9884326638
   56      C       7.1529522416     0.5717906323    -2.1131295187
   57      C       2.7626023892    -0.8613763885    -2.0631648893
   58      C       4.5406395426     3.4234842181     2.4694828428
   59      C       5.4360306693     3.9915735088    -3.1535522174
   60      C       3.9555434726    -1.7107659295    -0.1099905553
   61      C       6.0314991371     4.5288637181     0.8699242067
   62      C       1.8319041231    -0.2738403325    -1.1954649870
   63      C       5.3003952240    -0.4240911280    -3.1881765019
   64      C       1.5662082698     3.9922217784    -0.1649404700
   65      C       1.4276033852     3.0817541518     0.9471240007
   66      C       4.1365924787     0.2430433410    -3.7468935774
   67      C       4.2029657059     2.0854044173     2.8396622949
   68      C       3.3189345071    -0.4752341924     1.9356817918
   69      C       3.4595865337     4.0241762501     1.8894143342
   70      C       6.8101392506     0.1810105141     1.4034353040
   71      C       5.8103394115     1.7300566966    -3.7837376453
   72      C       2.9938622905    -1.1368349231     0.7661923617
   73      C       2.8833957592     0.0400202758    -3.1373022248
   74      C       5.8010173900     3.6509871985     1.9389368262
   75      C       3.5619628628     2.6301467716    -3.9923299564
   76      C       6.9566849733     3.9135633389     0.0292752836
   77      C       2.9933498204     4.4246702206    -2.6081179788
   78      C       6.2658764207     0.5632239166    -3.1884248732
   79      C       4.5057276663     1.5447831380    -4.1480340943
   80      C       7.4361853147     0.4246415743     0.1444896213
   81      C       6.4446317527     1.2758703560     2.2085894481
   82      C       2.6651259087     4.9068451851    -0.2141953887
   83      C       6.3345374190     2.9707075381    -3.3345695938
   84      C       1.2508744230     0.8613097448    -1.7732337900
   85      C       2.4208238881     3.0635860439     1.9418988256
   86      C       1.2369653951     3.1997172026    -1.3144101855
   87      C       6.7135711328     2.5856976080     1.7538915485
   88      C       4.9012380814     5.1232704026     0.2896056397
   89      O      -8.2493855677     4.3415688017     4.6636688818
   90      C      -9.2018155797     5.0792830331     5.4572051350
   91      H      -8.8655561375     6.1134763895     5.5974324113
   92      H      -9.3931014334     4.6907324598     6.4648842378
   93      H     -10.1674825146     5.1240281105     4.9387080290
   94      O      -6.6138516525     4.1757804266     6.2777237219
   95      C      -7.0125965416     3.9497439466     5.1426889105
   96      C      -6.2239149052     3.3748559925     4.0304991261
   97      H      -6.5513793686     3.9117601537     3.1317388985
   98      H      -6.5524644470     2.3570626083     3.7884209865
   99      C      -4.6995247912     3.4374216474     4.3204031090
  100      H      -4.3765654768     4.4709441486     4.4953817387
  101      H      -4.5415477151     2.9151500690     5.2718407800
  102      C      -3.7834480932     2.9432137501     3.1283745701
  103      H      -4.0131884923     3.5362515785     2.2350932689
  104      H      -2.7569424994     3.2037866450     3.4158011385
  105      C      -3.7106094694     1.4061851556     2.9184730820
  106      C      -3.1491943133     0.8135706730     4.1407660492
  107      C      -4.0351655440     0.2437338293     5.0826917097
  108      H      -5.1045749910     0.3416550186     4.9230550115
  109      C      -3.4809818507    -0.3738968987     6.2093348288
  110      H      -4.1117382694    -0.7900577272     6.9891800090
  111      C      -2.0572896218    -0.3996049311     6.3991703749
  112      H      -1.5531275189    -0.8103106173     7.2693493296
  113      C      -1.2309306783     0.2095212997     5.4550723229
  114      H      -0.1686095579     0.2076451005     5.6792002259
  115      C      -1.7825161310     0.7973951535     4.3491361492
  116      H      -1.0737944559     1.1457716242     3.6034040110
  117      C      -1.9045157379    -2.6612513407    -0.2731546815
  118      C      -3.8912102414    -3.6005124070     0.7383627919
  119      C      -6.4499573434    -3.4692026033    -3.0022850134
  120      C      -2.9885655815     1.7923393026    -2.4621999798
  121      C      -8.2563438365    -0.5810018000    -2.1168693162
  122      C      -2.7757837570    -2.8077101131     0.7823659800
  123      C      -5.6383493326     1.6452063279    -3.3801258811
  124      C      -4.0635783816    -4.1030444506    -2.7388728586
  125      C      -6.5848501337    -0.7953022555     1.6383028658
  126      C      -4.0417445869     2.2981746406    -1.7402445841
  127      C      -4.7556015887     0.7384859864     1.9816618471
  128      C      -6.8905608948     0.4063422537     1.0251508422
  129      C      -6.2015147981     2.1137931466    -1.0724983003
  130      C      -6.7871136850     0.8339094697    -3.5531544065
  131      C      -4.4336679281    -1.8309219198     2.0292300065
  132      C      -6.9733027433    -1.5185626603    -3.9886340413
  133      C      -3.3589502075     0.7836626637     1.5680074177
  134      C      -3.1064741000     1.5346901338     0.3949824587
  135      C      -7.8807466823    -1.6678804741    -2.8966561624
  136      C      -2.9601506314    -1.1809639538    -4.2777762896
  137      C      -4.8483252806    -2.4669449192    -4.4568389898
  138      C      -3.8218066404    -3.2477482609    -3.8144173035
  139      C      -3.2929997155    -4.1224706206    -1.5734286758
  140      C      -2.0530736317     0.9157846315    -0.4198012136
  141      C      -5.2842251464    -0.6935219907     2.1744189168
  142      C      -4.1813534362    -4.2584497298    -0.4703763883
  143      C      -5.3566850008     2.1946386369    -2.1505115750
  144      C      -4.9018382659    -2.9892564309     1.4544955503
  145      C      -7.6902186299     0.4349090818    -0.1064133154
  146      C      -1.5765955738    -0.0716098196    -2.5810459610
  147      C      -5.4314774180    -4.2337994845    -2.3290456423
  148      C      -5.8037334780     1.3225915415     1.1787164921
  149      C      -1.8071771517    -2.4945349940    -2.5514700371
  150      C      -7.3360050592     1.2582512512    -1.1747622370
  151      C      -7.0970653444    -1.9590275229     1.1325320879
  152      C      -5.1009438962    -0.0974532356    -4.7376129134
  153      C      -4.5892536143     1.0804894994    -4.1379880570
  154      C      -7.8849725199    -1.9653268761    -0.0673202368
  155      C      -1.9865752921     1.0562648155    -1.7923613357
  156      C      -4.0900548773     2.2400038949    -0.3130643992
  157      C      -2.3926150374    -0.0003375407    -3.7617582449
  158      C      -2.5090988401    -0.4786624435     1.3785556376
  159      C      -6.5291732731    -3.6810353637    -0.2369161921
  160      C      -5.4375839680     2.1735552150     0.1065484257
  161      C      -8.2417391791    -0.7181571474    -0.6835947037
  162      C      -1.2972160209    -1.3112091655    -2.0068181953
  163      C      -7.4569809920    -2.8726420204    -2.2701505709
  164      C      -2.1213444961    -3.3453111977    -1.4877765987
  165      C      -6.1860488325    -2.6468471957    -4.0588856388
  166      C      -6.2391655784    -3.0534266234     0.9609989994
  167      C      -7.5492694715    -3.0216618758    -0.8985613761
  168      C      -3.0693501704    -1.6980455595     1.6989620411
  169      C      -1.7073585679    -0.3157310053     0.2102141283
  170      C      -4.2689356695    -1.2699464160    -4.8054881857
  171      C      -5.4038722568    -4.2272968564    -0.9504370427
  172      C      -7.6181469843     0.6601601243    -2.3870245593
  173      C      -3.2334103673     1.1437923136    -3.6992035505
  174      C      -6.4709073113    -0.2521628541    -4.3351962448
  175      C      -1.4095659799    -1.3847861566    -0.5712375068
  176      C      -2.6872591787    -2.4026774781    -3.6761623605
 ----------------------------------------------------------------

    9   -5804.2893424244      8.50E-06 Convergence criterion met
 Total energy in the final basis set = -5804.2893424244

                    Orbital Energies (a.u.)
 --------------------------------------------------------------

 Alpha MOs
 -- Occupied --
-19.189 -19.188 -19.147 -19.138 -10.324 -10.318 -10.245 -10.242
-10.242 -10.242 -10.238 -10.236 -10.235 -10.233 -10.232 -10.232
-10.231 -10.229 -10.228 -10.228 -10.228 -10.226 -10.225 -10.224
-10.224 -10.224 -10.223 -10.223 -10.222 -10.222 -10.221 -10.221
-10.221 -10.221 -10.221 -10.220 -10.220 -10.220 -10.220 -10.219
-10.219 -10.219 -10.219 -10.219 -10.218 -10.218 -10.218 -10.218
-10.218 -10.217 -10.217 -10.217 -10.217 -10.217 -10.217 -10.217
-10.217 -10.217 -10.217 -10.217 -10.217 -10.217 -10.216 -10.216
-10.216 -10.216 -10.216 -10.216 -10.216 -10.216 -10.216 -10.216
-10.215 -10.215 -10.215 -10.215 -10.215 -10.215 -10.215 -10.215
-10.215 -10.215 -10.214 -10.214 -10.214 -10.214 -10.214 -10.213
-10.213 -10.213 -10.213 -10.213 -10.212 -10.212 -10.212 -10.212
-10.212 -10.212 -10.212 -10.212 -10.212 -10.212 -10.212 -10.212
-10.211 -10.211 -10.211 -10.211 -10.210 -10.210 -10.210 -10.210
-10.209 -10.209 -10.209 -10.209 -10.208 -10.208 -10.208 -10.208
-10.208 -10.207 -10.207 -10.207 -10.207 -10.207 -10.206 -10.206
-10.206 -10.205 -10.205 -10.205 -10.204 -10.204 -10.202 -10.202
-10.202 -10.201 -10.201 -10.200 -10.200 -10.199 -10.198 -10.198
-10.197 -10.197 -10.194 -10.193  -1.084  -1.081  -1.013  -1.007
 -0.984  -0.983  -0.967  -0.966  -0.963  -0.963  -0.962  -0.960
 -0.936  -0.934  -0.928  -0.927  -0.927  -0.925  -0.924  -0.922
 -0.921  -0.918  -0.900  -0.898  -0.892  -0.889  -0.884  -0.884
 -0.874  -0.873  -0.857  -0.855  -0.842  -0.840  -0.839  -0.839
 -0.837  -0.837  -0.822  -0.820  -0.803  -0.803  -0.798  -0.798
 -0.796  -0.795  -0.794  -0.794  -0.792  -0.791  -0.785  -0.783
 -0.771  -0.770  -0.769  -0.769  -0.769  -0.768  -0.767  -0.766
 -0.754  -0.751  -0.744  -0.742  -0.736  -0.734  -0.718  -0.716
 -0.715  -0.715  -0.712  -0.711  -0.711  -0.710  -0.709  -0.709
 -0.709  -0.708  -0.705  -0.705  -0.703  -0.700  -0.673  -0.673
 -0.661  -0.660  -0.659  -0.657  -0.650  -0.648  -0.632  -0.631
 -0.629  -0.627  -0.626  -0.625  -0.624  -0.622  -0.618  -0.616
 -0.616  -0.613  -0.613  -0.613  -0.612  -0.611  -0.610  -0.609
 -0.608  -0.606  -0.603  -0.603  -0.567  -0.566  -0.563  -0.561
 -0.561  -0.559  -0.559  -0.557  -0.557  -0.556  -0.554  -0.553
 -0.538  -0.538  -0.537  -0.533  -0.531  -0.527  -0.527  -0.524
 -0.521  -0.520  -0.519  -0.518  -0.516  -0.515  -0.514  -0.513
 -0.508  -0.505  -0.502  -0.498  -0.491  -0.491  -0.489  -0.487
 -0.486  -0.484  -0.481  -0.481  -0.480  -0.479  -0.474  -0.474
 -0.473  -0.472  -0.471  -0.470  -0.469  -0.468  -0.468  -0.467
 -0.466  -0.464  -0.464  -0.463  -0.463  -0.462  -0.459  -0.458
 -0.456  -0.455  -0.454  -0.453  -0.450  -0.445  -0.443  -0.443
 -0.441  -0.440  -0.440  -0.439  -0.438  -0.437  -0.433  -0.432
 -0.431  -0.430  -0.429  -0.428  -0.427  -0.426  -0.425  -0.424
 -0.424  -0.423  -0.422  -0.422  -0.421  -0.421  -0.421  -0.420
 -0.419  -0.418  -0.416  -0.416  -0.416  -0.415  -0.415  -0.414
 -0.413  -0.412  -0.412  -0.410  -0.403  -0.401  -0.400  -0.398
 -0.393  -0.392  -0.390  -0.389  -0.388  -0.387  -0.386  -0.381
 -0.379  -0.378  -0.371  -0.371  -0.371  -0.368  -0.367  -0.366
 -0.365  -0.364  -0.363  -0.363  -0.361  -0.360  -0.358  -0.358
 -0.358  -0.357  -0.355  -0.354  -0.353  -0.352  -0.351  -0.351
 -0.350  -0.349  -0.349  -0.347  -0.346  -0.345  -0.345  -0.345
 -0.344  -0.342  -0.342  -0.341  -0.340  -0.338  -0.337  -0.335
 -0.333  -0.332  -0.330  -0.330  -0.329  -0.328  -0.327  -0.323
 -0.307  -0.303  -0.298  -0.297  -0.292  -0.290  -0.276  -0.274
 -0.272  -0.271  -0.270  -0.268  -0.267  -0.267  -0.266  -0.264
 -0.263  -0.262  -0.260  -0.259  -0.258  -0.256  -0.256  -0.255
 -0.251  -0.248  -0.243  -0.241  -0.226  -0.221  -0.216  -0.213
 -0.210  -0.207  -0.205  -0.204  -0.202  -0.200

          Ground-State Mulliken Net Atomic Charges

     Atom                 Charge (a.u.)
  ----------------------------------------
      1 O                    -0.485327
      2 C                    -0.085021
      3 H                     0.132663
      4 H                     0.121254
      5 H                     0.120175
      6 O                    -0.458042
      7 C                     0.596638
      8 C                    -0.252489
      9 H                     0.140154
     10 H                     0.142007
     11 C                    -0.187096
     12 H                     0.128064
     13 H                     0.111844
     14 C                    -0.176734
     15 H                     0.100829
     16 H                     0.102678
     17 C                     0.004882
     18 C                     0.093138
     19 C                    -0.114647
     20 H                     0.097967
     21 C                    -0.082080
     22 H                     0.093934
     23 C                    -0.086463
     24 H                     0.092637
     25 C                    -0.098930
     26 H                     0.093921
     27 C                    -0.097196
     28 H                     0.087410
     29 C                     0.026337
     30 C                    -0.004703
     31 C                    -0.005578
     32 C                    -0.020212
     33 C                    -0.015247
     34 C                    -0.028961
     35 C                     0.011935
     36 C                    -0.007534
     37 C                     0.003581
     38 C                    -0.051218
     39 C                    -0.079284
     40 C                     0.003376
     41 C                     0.004443
     42 C                     0.050913
     43 C                     0.006934
     44 C                     0.013209
     45 C                    -0.090136
     46 C                     0.061732
     47 C                     0.014208
     48 C                    -0.002836
     49 C                     0.029839
     50 C                     0.008470
     51 C                     0.005381
     52 C                     0.009362
     53 C                     0.017013
     54 C                    -0.006453
     55 C                     0.020815
     56 C                     0.003169
     57 C                    -0.007528
     58 C                    -0.007886
     59 C                    -0.000044
     60 C                     0.022805
     61 C                    -0.019727
     62 C                     0.018205
     63 C                    -0.032355
     64 C                    -0.030175
     65 C                    -0.047133
     66 C                    -0.018821
     67 C                    -0.002698
     68 C                    -0.026253
     69 C                     0.023674
     70 C                     0.030019
     71 C                     0.035815
     72 C                     0.001889
     73 C                     0.003838
     74 C                     0.007059
     75 C                    -0.005558
     76 C                     0.010311
     77 C                    -0.036158
     78 C                     0.019362
     79 C                    -0.013014
     80 C                     0.014072
     81 C                    -0.030820
     82 C                     0.007855
     83 C                    -0.015631
     84 C                    -0.019825
     85 C                     0.023876
     86 C                    -0.008799
     87 C                     0.003014
     88 C                    -0.016519
     89 O                    -0.481649
     90 C                    -0.084136
     91 H                     0.122829
     92 H                     0.128914
     93 H                     0.124228
     94 O                    -0.473681
     95 C                     0.613996
     96 C                    -0.271759
     97 H                     0.138444
     98 H                     0.137923
     99 C                    -0.185071
    100 H                     0.112600
    101 H                     0.135221
    102 C                    -0.196595
    103 H                     0.105745
    104 H                     0.112429
    105 C                     0.012012
    106 C                     0.084935
    107 C                    -0.090906
    108 H                     0.095776
    109 C                    -0.105056
    110 H                     0.092378
    111 C                    -0.082167
    112 H                     0.089210
    113 C                    -0.084782
    114 H                     0.091977
    115 C                    -0.100521
    116 H                     0.092511
    117 C                     0.008928
    118 C                    -0.014133
    119 C                     0.020850
    120 C                    -0.023183
    121 C                    -0.029599
    122 C                    -0.001535
    123 C                    -0.013365
    124 C                    -0.014298
    125 C                     0.020703
    126 C                     0.023812
    127 C                    -0.087160
    128 C                     0.024533
    129 C                    -0.018792
    130 C                    -0.016495
    131 C                     0.015702
    132 C                     0.001801
    133 C                    -0.079054
    134 C                     0.051165
    135 C                    -0.011738
    136 C                     0.021485
    137 C                     0.014963
    138 C                    -0.017763
    139 C                     0.007386
    140 C                    -0.010853
    141 C                     0.011717
    142 C                    -0.003225
    143 C                     0.037822
    144 C                     0.014751
    145 C                    -0.001313
    146 C                     0.005897
    147 C                    -0.040773
    148 C                     0.037278
    149 C                     0.002522
    150 C                     0.005500
    151 C                    -0.012116
    152 C                    -0.034693
    153 C                     0.013297
    154 C                    -0.010100
    155 C                     0.013268
    156 C                    -0.029119
    157 C                    -0.026143
    158 C                     0.022013
    159 C                     0.005425
    160 C                    -0.049616
    161 C                    -0.021017
    162 C                     0.002214
    163 C                     0.021852
    164 C                    -0.027285
    165 C                     0.004706
    166 C                    -0.015847
    167 C                    -0.002389
    168 C                    -0.024990
    169 C                     0.023633
    170 C                    -0.011120
    171 C                     0.043696
    172 C                     0.018642
    173 C                    -0.011215
    174 C                     0.017832
    175 C                     0.008323
    176 C                     0.004837
  ----------------------------------------
  Sum of atomic charges =     0.000000

                    Cartesian Multipole Moments
 -----------------------------------------------------------------
    Charge (ESU x 10^10)
                 0.0000
    Dipole Moment (Debye)
         X       0.4467      Y      -1.1314      Z       3.0054
       Tot       3.2422
    Quadrupole Moments (Debye-Ang)
        XX    -781.4433     XY     -17.1817     YY    -800.2930
        XZ       6.2976     YZ     -16.1077     ZZ    -807.7470

 Total job time:  851.14s(wall), 7221.81s(cpu)
        *  Thank you very much for using Q-Chem.  Have a nice day.  *
