 Q-Chem 4.4, Q-Chem, Inc., Pleasanton, CA (2016)
 Q-Chem 4.4.2 for Intel X86 Linux

User input:
--------------------------------------------------------------
$comment
SP
$end

$rem
MEM_STATIC 5000
MEM_TOTAL 20000
JOBTYPE SP
EXCHANGE B3LYP
BASIS 6-31g(d,p)
$end

$molecule
0 1
O          15.457000    -14.963000      0.955000
C          16.373000    -14.678000      2.062000
H          17.357000    -14.336000      1.719000
H          16.603000    -15.573000      2.654000
H          15.916000    -14.037000      2.826000
O          16.827000    -16.493000     -0.053000
C          15.759000    -15.950000      0.039000
C          14.569000    -16.395000     -0.738000
H          14.103000    -17.200000     -0.155000
H          14.885000    -16.847000     -1.686000
C          13.535000    -15.241000     -1.131000
H          12.736000    -15.555000     -1.814000
H          13.042000    -14.977000     -0.187000
C          14.305000    -14.057000     -1.797000
H          15.113000    -13.694000     -1.150000
H          14.709000    -14.396000     -2.758000
C          13.326000    -12.805000     -1.971000
C          12.357000    -13.000000     -3.191000
C          11.028000    -13.473000     -2.952000
H          10.739000    -13.791000     -1.955000
C          10.134000    -13.581000     -4.029000
H           9.088000    -13.782000     -3.814000
C          10.538000    -13.187000     -5.314000
H           9.846000    -13.215000     -6.151000
C          11.893000    -12.889000     -5.549000
H          12.201000    -12.646000     -6.561000
C          12.750000    -12.632000     -4.503000
H          13.756000    -12.290000     -4.727000
C          12.833000     -7.325000     -1.801000
C          10.722000     -8.108000     -1.114000
C          11.195000     -6.882000      3.240000
C          16.576000     -9.467000      0.981000
C          11.952000    -10.129000      4.271000
C          11.818000     -8.289000     -1.928000
C          15.541000     -9.907000      3.581000
C          11.791000     -5.785000      1.184000
C          10.932000    -11.656000      0.705000
C          16.102000    -10.737000      1.379000
C          12.772000    -12.112000     -0.719000
C          11.969000    -12.159000      1.514000
C          14.478000    -11.785000      2.534000
C          14.407000     -9.657000      4.346000
C          11.016000    -10.394000     -1.335000
C          12.796000     -7.846000      4.514000
C          13.824000    -11.386000     -1.570000
C          15.114000    -11.048000     -0.871000
C          11.707000     -8.755000      4.422000
C          15.217000     -6.296000      1.750000
C          13.386000     -6.017000      3.055000
C          13.102000     -5.535000      1.740000
C          11.674000     -6.085000     -0.171000
C          15.534000     -9.747000     -1.152000
C          11.430000    -11.529000     -0.626000
C          10.659000     -7.048000     -0.254000
C          15.560000    -10.950000      2.637000
C          10.188000     -9.381000     -0.786000
C          12.049000    -11.843000      2.836000
C          16.034000     -7.615000     -0.217000
C          10.836000     -6.402000      1.969000
C          13.045000    -12.426000      0.716000
C          14.070000     -6.074000     -0.426000
C          13.384000    -11.671000      3.377000
C          10.065000    -10.715000      1.283000
C          15.104000     -7.662000      3.699000
C          15.975000     -8.654000      3.169000
C          10.179000    -10.345000      2.655000
C          16.300000     -8.985000     -0.323000
C          15.320000    -11.513000      0.437000
C          16.080000     -7.255000      1.147000
C          13.423000    -10.093000     -2.130000
C           9.642000     -8.448000      1.475000
C          14.314000    -12.138000      1.194000
C          11.175000    -10.875000      3.413000
C          14.963000     -7.023000     -0.959000
C          10.695000     -8.145000      3.614000
C          12.791000     -6.232000     -0.980000
C          12.437000     -6.709000      3.791000
C           9.769000     -9.515000      0.595000
C           9.944000     -8.898000      2.737000
C          12.102000     -9.640000     -1.969000
C          14.446000     -9.145000     -1.974000
C          14.713000     -6.511000      3.004000
C          10.063000     -7.138000      1.037000
C          13.310000    -10.559000      4.268000
C          16.425000     -8.439000      1.852000
C          14.112000     -8.278000      4.487000
C          14.152000     -7.777000     -1.865000
C          14.254000     -5.736000      0.887000
O          12.834000     -9.809000     -5.643000
C          11.404000     -9.637000     -5.724000
H          11.113000     -9.309000     -6.729000
H          10.967000     -8.904000     -5.035000
H          10.900000    -10.594000     -5.541000
O          13.384000     -7.572000     -5.674000
C          13.721000     -8.748000     -5.631000
C          15.102000     -9.272000     -5.719000
H          15.029000    -10.190000     -6.315000
H          15.439000     -9.681000     -4.759000
C          16.084000     -8.202000     -6.269000
H          15.767000     -7.852000     -7.259000
H          15.998000     -7.331000     -5.608000
C          17.561000     -8.722000     -6.498000
H          17.533000     -9.581000     -7.179000
H          18.078000     -7.918000     -7.037000
C          18.425000     -8.901000     -5.220000
C          18.548000     -7.586000     -4.575000
C          17.703000     -7.289000     -3.482000
H          16.928000     -7.999000     -3.210000
C          17.877000     -6.059000     -2.838000
H          17.229000     -5.756000     -2.021000
C          18.871000     -5.130000     -3.299000
H          19.032000     -4.137000     -2.889000
C          19.654000     -5.460000     -4.405000
H          20.349000     -4.697000     -4.742000
C          19.486000     -6.672000     -5.018000
H          20.208000     -6.906000     -5.795000
C          23.162000    -10.718000     -3.158000
C          21.627000    -10.968000     -1.305000
C          21.396000    -15.493000     -1.472000
C          21.314000    -13.023000     -7.290000
C          18.286000    -15.647000     -3.113000
C          22.079000    -10.306000     -2.415000
C          19.819000    -15.232000     -6.412000
C          23.361000    -13.998000     -1.736000
C          17.881000    -11.592000     -2.535000
C          19.949000    -12.972000     -7.147000
C          18.387000    -10.272000     -4.489000
C          17.383000    -12.240000     -3.651000
C          18.096000    -13.584000     -5.991000
C          19.411000    -16.021000     -5.308000
C          19.795000    -10.128000     -2.320000
C          20.563000    -16.552000     -3.271000
C          19.611000     -9.863000     -5.166000
C          20.004000    -10.692000     -6.244000
C          19.437000    -16.129000     -2.502000
C          23.562000    -14.615000     -5.157000
C          22.820000    -15.822000     -3.356000
C          23.652000    -14.748000     -2.876000
C          23.403000    -12.602000     -1.693000
C          21.465000    -10.824000     -6.312000
C          18.561000    -10.435000     -2.969000
C          22.280000    -12.159000     -0.940000
C          19.200000    -14.031000     -6.672000
C          20.248000    -10.896000     -1.273000
C          17.299000    -13.623000     -3.682000
C          23.294000    -12.410000     -6.201000
C          22.200000    -14.397000     -0.995000
C          17.705000    -11.498000     -4.830000
C          24.227000    -12.576000     -3.959000
C          17.686000    -14.307000     -4.834000
C          18.271000    -12.326000     -1.448000
C          21.666000    -16.130000     -5.437000
C          21.225000    -15.317000     -6.511000
C          18.244000    -13.761000     -1.471000
C          22.094000    -11.938000     -6.833000
C          19.270000    -11.800000     -6.691000
C          23.201000    -13.842000     -6.277000
C          20.923000     -9.597000     -4.418000
C          20.137000    -13.217000     -0.506000
C          18.090000    -12.178000     -6.012000
C          17.688000    -14.438000     -2.609000
C          23.808000    -11.810000     -5.052000
C          20.019000    -15.406000     -1.424000
C          23.885000    -11.875000     -2.799000
C          21.710000    -16.216000     -2.586000
C          19.503000    -12.036000     -0.847000
C          19.375000    -14.307000     -0.886000
C          20.915000     -9.664000     -3.040000
C          21.999000    -10.141000     -5.180000
C          22.866000    -15.769000     -4.729000
C          21.571000    -13.223000     -0.638000
C          18.319000    -15.495000     -4.526000
C          22.010000    -14.213000     -6.958000
C          20.518000    -16.537000     -4.676000
C          23.084000    -10.666000     -4.556000
C          24.050000    -13.995000     -4.014000
$end

--------------------------------------------------------------

             Standard Nuclear Orientation (Angstroms)
    I     Atom           X                Y                Z
 ----------------------------------------------------------------
    1      O       0.6406609325     4.8152071179     0.5824705994
    2      C       0.5579105389     4.8571541502     2.0443607522
    3      H      -0.2543195631     4.2351955497     2.4397324262
    4      H       0.3206052359     5.8606137012     2.4200522783
    5      H       1.5301659492     4.6826872600     2.5215470065
    6      O      -1.5082639676     5.5201519832     0.2374510194
    7      C      -0.4138455531     5.2630129997    -0.1868895009
    8      C      -0.0167685141     5.5492534227    -1.5933923432
    9      H       0.3256289542     6.5920909281    -1.6113898742
   10      H      -0.8942678180     5.5037630557    -2.2497379825
   11      C       1.0498706972     4.5396819946    -2.2245558121
   12      H       1.2331094516     4.6786002662    -3.2972213111
   13      H       1.9937715374     4.7827196663    -1.7207057413
   14      C       0.5715381641     3.0702243209    -2.0004930242
   15      H       0.3825086045     2.8710509944    -0.9384949962
   16      H      -0.3387562090     2.9028723573    -2.5878732031
   17      C       1.7373366105     2.0541880288    -2.4064551352
   18      C       1.8418287492     1.8944716762    -3.9649666300
   19      C       2.8267495123     2.6514492019    -4.6749012157
   20      H       3.4136610583     3.3997749675    -4.1512626134
   21      C       2.9738631606     2.4600406495    -6.0578507233
   22      H       3.8271247461     2.9140857916    -6.5543682714
   23      C       2.1864838550     1.5041151019    -6.7180909648
   24      H       2.3198896428     1.3049402905    -7.7776896107
   25      C       1.1163966018     0.9003921158    -6.0321712709
   26      H       0.4787389268     0.2094259224    -6.5744031485
   27      C       1.0402643873     0.9525147694    -4.6588173053
   28      H       0.2678935666     0.3759748574    -4.1585963088
   29      C       4.2925717440    -2.6794598596    -1.2378234215
   30      C       5.9928264825    -1.3213963318    -2.1356966190
   31      C       8.1796667871    -0.6950823954     1.8025239608
   32      C       1.8593186576    -0.2783117015     2.5899048787
   33      C       6.8427581417     2.4962921006     2.2573020388
   34      C       4.6666795447    -1.6915906346    -2.1650816098
   35      C       3.7601686162     1.3756032818     3.8845707285
   36      C       7.1371193949    -2.6321196847     0.8295170365
   37      C       5.3525739138     2.5622667531    -1.4660678477
   38      C       1.9422144512     1.1043369960     2.3117127387
   39      C       3.0407171650     2.0527651794    -1.5965995273
   40      C       4.7312305508     3.1626269710    -0.3541510190
   41      C       3.3820899959     2.8065360219     1.9970988611
   42      C       5.1190053972     1.6706382013     3.8704995203
   43      C       4.7849255360     0.5753880302    -2.6872919303
   44      C       7.1611371348     0.4094661763     3.4931282315
   45      C       2.0764595754     0.8654355052    -1.4608182850
   46      C       1.5221784401     0.6246412020    -0.0817840118
   47      C       7.6314522512     1.3758722568     2.5627901322
   48      C       4.5086621851    -2.5490490070     3.1540094454
   49      C       6.6888588493    -1.9324709916     3.1550372341
   50      C       6.4640012698    -2.8573558853     2.0890953959
   51      C       6.4637091457    -2.9051752615    -0.3586215448
   52      C       1.5500052992    -0.7276093925     0.2626081999
   53      C       4.3672746602     1.8089330279    -2.1713108408
   54      C       6.8593609382    -1.8999624497    -1.2516444236
   55      C       2.8944535624     1.9119842368     2.9139117169
   56      C       6.0883088626     0.0455597722    -2.5039127578
   57      C       5.4240809050     3.4142858903     0.7906486032
   58      C       2.4155495871    -2.3318318797     1.7945847981
   59      C       8.0344585497    -1.5866437279     0.7260691507
   60      C       3.3958730596     2.8793763735    -0.4037339757
   61      C       4.4525193534    -3.4456395805     0.8533916314
   62      C       4.6951260143     3.2482003068     2.0338422110
   63      C       6.6733327853     2.1156433921    -1.3006061401
   64      C       5.0158979728    -0.5019103388     4.2627299371
   65      C       3.6956718839     0.0094211219     4.1243528740
   66      C       7.3839104733     2.3337936181    -0.0841482377
   67      C       1.6334324034    -1.2000564370     1.5371570254
   68      C       1.8117501839     1.5452845857     0.9370824982
   69      C       3.1721929611    -2.0960105601     2.9625279088
   70      C       2.6155958117    -0.4496943768    -1.8158049216
   71      C       7.9619628407     0.2466790989    -0.8517330501
   72      C       2.7328666074     2.5953420693     0.7801308639
   73      C       6.7601564191     2.9443889223     0.9577655084
   74      C       3.1298241087    -2.9778360158     0.7360199375
   75      C       8.2742195130     0.6759823592     1.4922237501
   76      C       5.1363082844    -3.3073708654    -0.3635863718
   77      C       7.5293674580    -0.8414213744     2.9990981063
   78      C       7.0325896629     0.8118532137    -1.7153659098
   79      C       8.1592781553     1.1178413785     0.1915746462
   80      C       3.9088334352    -0.5530275904    -2.3571270958
   81      C       2.2430324789    -1.4126812941    -0.8653199085
   82      C       5.4281986386    -1.7480141088     3.7749384289
   83      C       7.9169064972    -1.1788525105    -0.6258690276
   84      C       5.6050360862     2.6380172792     2.9479764100
   85      C       2.7884901570    -0.8081471784     3.4230559407
   86      C       5.9442885466     0.5504787575     4.1401243407
   87      C       3.0479506457    -2.5364619986    -0.6224934827
   88      C       5.0672524945    -3.2357939923     2.0576079717
   89      O       1.4991515500    -2.0547269742    -4.8068195607
   90      C       2.6552302552    -1.9882013113    -5.6671110018
   91      H       2.5264446277    -2.6458991911    -6.5349461019
   92      H       3.6105994015    -2.2794207057    -5.2138560421
   93      H       2.7774436181    -0.9687298455    -6.0532402863
   94      O       1.9004900811    -4.1619099868    -3.9663809046
   95      C       1.2077318165    -3.1541406408    -4.0200552195
   96      C      -0.1247913041    -2.9678177431    -3.4043061546
   97      H      -0.7029084013    -2.3824649377    -4.1298485139
   98      H      -0.0847920188    -2.2646271242    -2.5638461552
   99      C      -0.7581517264    -4.3250403901    -2.9937878698
  100      H      -0.8508172539    -4.9915475703    -3.8599693050
  101      H      -0.0410419574    -4.8132998172    -2.3227332439
  102      C      -2.2328088737    -4.2177534248    -2.4296550797
  103      H      -2.8649206734    -3.7282753704    -3.1801695079
  104      H      -2.5947103835    -5.2505075502    -2.3479714606
  105      C      -2.3686893133    -3.6815364338    -0.9785076562
  106      C      -1.6555236099    -4.6098180631    -0.0896505832
  107      C      -0.3493426951    -4.2720510686     0.3306919854
  108      H       0.1236885236    -3.3881043192    -0.0859476795
  109      C       0.2907294297    -5.1339200913     1.2281336061
  110      H       1.3108179088    -4.9508397790     1.5523296796
  111      C      -0.3629237148    -6.3305251077     1.6803194103
  112      H       0.0847352678    -7.0755214761     2.3319725745
  113      C      -1.6389304117    -6.6332272662     1.2055528227
  114      H      -2.0598745164    -7.5772336744     1.5378493199
  115      C      -2.2619861252    -5.7756412974     0.3399403897
  116      H      -3.2950507576    -6.0168586257     0.1067866516
  117      C      -5.8098714238    -2.0451971072     2.9550862845
  118      C      -3.8010921813    -0.7817997056     3.4251575139
  119      C      -5.4197781554     3.2290514257     2.0650825452
  120      C      -7.2140894163    -1.3724943381    -1.8799106973
  121      C      -3.8109093795     3.2379816423    -1.0654379408
  122      C      -4.4402960112    -1.9129298066     2.9931723772
  123      C      -6.4508759219     1.2283490415    -2.6138785965
  124      C      -6.5304695239     1.4366551004     3.3764276932
  125      C      -1.6708661801    -0.0701944341     0.1250746178
  126      C      -6.0476307912    -1.1166515738    -2.5582865195
  127      C      -2.5084508262    -2.1480480968    -0.7679696795
  128      C      -2.0606911349     0.1340114862    -1.1862988784
  129      C      -4.2605667678     0.2373963855    -2.9009894518
  130      C      -5.8976134112     2.4625509295    -2.1914483730
  131      C      -2.5226635869    -1.6273482128     1.7690424663
  132      C      -6.0297897735     3.5764637492    -0.0700899310
  133      C      -3.6454407618    -3.0108082446    -0.4735468310
  134      C      -4.7896668251    -2.7873182624    -1.2763998336
  135      C      -4.6095574436     3.7173147431    -0.0344932051
  136      C      -8.5693693171     0.5338856589     0.7020631015
  137      C      -7.5759750258     2.4893186011     1.3657375629
  138      C      -7.5938989066     1.5820226956     2.4849305196
  139      C      -6.0120717635     0.2009332898     3.7722614570
  140      C      -6.0266901133    -2.9568012650    -0.5033423349
  141      C      -1.9767808178    -1.4034343503     0.4690114726
  142      C      -4.5942992564     0.3167684968     3.8020997385
  143      C      -5.6302199087     0.1583425821    -2.8873230790
  144      C      -2.6689782796    -0.5882238219     2.6578925722
  145      C      -2.5351952397     1.3705519644    -1.5943668881
  146      C      -8.0212672859    -1.8194989489     0.2720049062
  147      C      -5.4086599122     2.3058406775     3.1708489306
  148      C      -2.5999663445    -1.0740687087    -1.7285289874
  149      C      -7.7430330798    -0.9075852766     2.5115602596
  150      C      -3.6551322002     1.4350065632    -2.4228086839
  151      C      -1.7352442519     0.9663331032     1.0160803015
  152      C      -7.7824506444     2.1064305858    -0.9939034239
  153      C      -7.6414888518     1.0138196588    -1.8856753315
  154      C      -2.2707029347     2.2424957654     0.6350608027
  155      C      -7.1978154927    -2.2899187962    -0.8063458306
  156      C      -4.8462153139    -1.8533776386    -2.3208069283
  157      C      -8.5289410259    -0.5562746106    -0.1879740551
  158      C      -4.2209134304    -3.1709275254     0.9388260035
  159      C      -3.0950387227     1.8211192992     2.6234074482
  160      C      -3.7312320148    -1.0252636334    -2.5803535279
  161      C      -2.6363212255     2.4737564716    -0.7343736613
  162      C      -7.6464629553    -1.9700198500     1.6066442478
  163      C      -4.2758438267     3.4155146671     1.3149840775
  164      C      -6.6483308884    -0.9918799762     3.3767114116
  165      C      -6.4786025770     3.3570149637     1.2137088452
  166      C      -2.3090998184     0.7380544242     2.2737382969
  167      C      -3.0903967544     2.7717276950     1.6186855314
  168      C      -3.5772651728    -2.5385784739     1.9825158989
  169      C      -5.6442971098    -3.1920024773     0.8499961227
  170      C      -8.2525605530     1.8647987526     0.3448257238
  171      C      -4.2935996510     1.5174298363     3.3616759706
  172      C      -4.4588159973     2.5108199706    -2.1009160515
  173      C      -8.0567568104    -0.2961224563    -1.5029820107
  174      C      -6.6643328852     2.9887405877    -1.1783369814
  175      C      -6.4009082944    -2.6571929775     1.8418349776
  176      C      -8.1693063331     0.3676370498     2.0216478880
 ----------------------------------------------------------------

    9   -5804.3003995209      9.65E-06 Convergence criterion met
 Total energy in the final basis set = -5804.3003995209

                    Orbital Energies (a.u.)
 --------------------------------------------------------------

 Alpha MOs
 -- Occupied --
-19.195 -19.188 -19.140 -19.137 -10.320 -10.317 -10.247 -10.247
-10.242 -10.238 -10.238 -10.236 -10.235 -10.233 -10.230 -10.229
-10.228 -10.228 -10.227 -10.227 -10.226 -10.223 -10.222 -10.222
-10.222 -10.221 -10.221 -10.221 -10.221 -10.220 -10.220 -10.220
-10.220 -10.220 -10.220 -10.219 -10.219 -10.219 -10.219 -10.219
-10.219 -10.219 -10.219 -10.219 -10.218 -10.218 -10.218 -10.218
-10.218 -10.217 -10.217 -10.217 -10.217 -10.217 -10.217 -10.217
-10.217 -10.217 -10.217 -10.217 -10.217 -10.217 -10.216 -10.216
-10.216 -10.216 -10.216 -10.216 -10.216 -10.216 -10.216 -10.216
-10.215 -10.215 -10.215 -10.215 -10.215 -10.215 -10.215 -10.215
-10.215 -10.215 -10.215 -10.215 -10.215 -10.214 -10.214 -10.214
-10.214 -10.214 -10.214 -10.214 -10.214 -10.213 -10.213 -10.213
-10.213 -10.213 -10.213 -10.213 -10.213 -10.213 -10.213 -10.212
-10.212 -10.212 -10.212 -10.211 -10.211 -10.211 -10.211 -10.211
-10.211 -10.211 -10.211 -10.210 -10.209 -10.209 -10.209 -10.209
-10.208 -10.208 -10.208 -10.207 -10.207 -10.207 -10.207 -10.206
-10.206 -10.206 -10.206 -10.205 -10.205 -10.204 -10.204 -10.203
-10.202 -10.202 -10.202 -10.201 -10.201 -10.198 -10.197 -10.196
-10.196 -10.195 -10.192 -10.190  -1.093  -1.083  -1.017  -1.006
 -0.984  -0.983  -0.967  -0.966  -0.964  -0.963  -0.963  -0.959
 -0.936  -0.933  -0.928  -0.926  -0.926  -0.925  -0.923  -0.922
 -0.922  -0.921  -0.897  -0.895  -0.890  -0.888  -0.887  -0.884
 -0.873  -0.871  -0.855  -0.855  -0.845  -0.842  -0.841  -0.839
 -0.838  -0.837  -0.821  -0.819  -0.803  -0.802  -0.800  -0.798
 -0.797  -0.795  -0.794  -0.794  -0.794  -0.790  -0.788  -0.784
 -0.777  -0.770  -0.770  -0.768  -0.768  -0.768  -0.766  -0.761
 -0.756  -0.751  -0.740  -0.739  -0.733  -0.732  -0.718  -0.717
 -0.716  -0.714  -0.714  -0.714  -0.713  -0.711  -0.710  -0.710
 -0.709  -0.708  -0.707  -0.705  -0.704  -0.700  -0.672  -0.672
 -0.664  -0.661  -0.660  -0.658  -0.650  -0.648  -0.630  -0.629
 -0.628  -0.627  -0.627  -0.626  -0.624  -0.621  -0.620  -0.620
 -0.617  -0.615  -0.615  -0.614  -0.612  -0.611  -0.610  -0.609
 -0.608  -0.605  -0.604  -0.602  -0.570  -0.566  -0.565  -0.563
 -0.562  -0.561  -0.559  -0.558  -0.557  -0.556  -0.555  -0.552
 -0.539  -0.536  -0.536  -0.536  -0.528  -0.527  -0.526  -0.525
 -0.523  -0.522  -0.521  -0.518  -0.518  -0.517  -0.513  -0.512
 -0.506  -0.504  -0.501  -0.499  -0.492  -0.490  -0.490  -0.487
 -0.486  -0.484  -0.484  -0.480  -0.480  -0.479  -0.477  -0.474
 -0.473  -0.472  -0.471  -0.469  -0.468  -0.467  -0.467  -0.466
 -0.465  -0.464  -0.464  -0.463  -0.463  -0.462  -0.458  -0.457
 -0.456  -0.454  -0.453  -0.453  -0.449  -0.446  -0.444  -0.442
 -0.442  -0.441  -0.439  -0.439  -0.437  -0.436  -0.436  -0.433
 -0.432  -0.431  -0.429  -0.429  -0.428  -0.427  -0.426  -0.426
 -0.425  -0.424  -0.423  -0.422  -0.422  -0.420  -0.420  -0.419
 -0.417  -0.417  -0.416  -0.415  -0.415  -0.415  -0.414  -0.414
 -0.413  -0.411  -0.410  -0.409  -0.407  -0.402  -0.401  -0.399
 -0.396  -0.393  -0.391  -0.389  -0.388  -0.388  -0.386  -0.381
 -0.379  -0.378  -0.376  -0.372  -0.370  -0.368  -0.367  -0.365
 -0.364  -0.363  -0.362  -0.361  -0.360  -0.360  -0.359  -0.358
 -0.357  -0.356  -0.356  -0.354  -0.354  -0.353  -0.351  -0.350
 -0.349  -0.348  -0.348  -0.346  -0.346  -0.345  -0.344  -0.343
 -0.342  -0.341  -0.340  -0.339  -0.339  -0.337  -0.336  -0.336
 -0.334  -0.333  -0.332  -0.330  -0.329  -0.327  -0.327  -0.324
 -0.311  -0.304  -0.301  -0.295  -0.289  -0.287  -0.276  -0.274
 -0.272  -0.271  -0.269  -0.269  -0.267  -0.266  -0.266  -0.264
 -0.263  -0.261  -0.260  -0.259  -0.258  -0.257  -0.257  -0.254
 -0.250  -0.246  -0.245  -0.242  -0.224  -0.220  -0.215  -0.213
 -0.213  -0.210  -0.207  -0.204  -0.203  -0.201

          Ground-State Mulliken Net Atomic Charges

     Atom                 Charge (a.u.)
  ----------------------------------------
      1 O                    -0.481526
      2 C                    -0.097641
      3 H                     0.136334
      4 H                     0.122014
      5 H                     0.129266
      6 O                    -0.463777
      7 C                     0.619554
      8 C                    -0.267887
      9 H                     0.137020
     10 H                     0.134698
     11 C                    -0.192501
     12 H                     0.107637
     13 H                     0.116647
     14 C                    -0.189463
     15 H                     0.125887
     16 H                     0.117190
     17 C                     0.005448
     18 C                     0.061785
     19 C                    -0.103552
     20 H                     0.096772
     21 C                    -0.092772
     22 H                     0.092668
     23 C                    -0.095947
     24 H                     0.093190
     25 C                    -0.099368
     26 H                     0.093482
     27 C                    -0.071516
     28 H                     0.098221
     29 C                     0.024130
     30 C                     0.011722
     31 C                     0.015273
     32 C                    -0.012491
     33 C                     0.008394
     34 C                     0.005339
     35 C                    -0.003970
     36 C                     0.000510
     37 C                    -0.011706
     38 C                    -0.021701
     39 C                    -0.067110
     40 C                     0.045347
     41 C                    -0.001148
     42 C                    -0.002661
     43 C                    -0.005813
     44 C                     0.015671
     45 C                    -0.104017
     46 C                     0.024828
     47 C                    -0.027356
     48 C                    -0.001850
     49 C                    -0.009304
     50 C                    -0.028369
     51 C                    -0.013554
     52 C                     0.032267
     53 C                     0.030914
     54 C                     0.037597
     55 C                     0.017441
     56 C                    -0.034644
     57 C                    -0.026695
     58 C                     0.001100
     59 C                     0.018059
     60 C                     0.021098
     61 C                     0.017336
     62 C                    -0.043096
     63 C                    -0.008609
     64 C                    -0.004249
     65 C                    -0.002635
     66 C                    -0.024403
     67 C                    -0.002678
     68 C                    -0.008096
     69 C                    -0.008196
     70 C                     0.041268
     71 C                     0.008443
     72 C                     0.036758
     73 C                     0.034271
     74 C                    -0.014711
     75 C                    -0.006825
     76 C                     0.007760
     77 C                     0.013075
     78 C                     0.006464
     79 C                     0.003992
     80 C                     0.007412
     81 C                    -0.037870
     82 C                     0.015740
     83 C                    -0.055149
     84 C                    -0.004975
     85 C                     0.017784
     86 C                    -0.003650
     87 C                    -0.020985
     88 C                    -0.006707
     89 O                    -0.485203
     90 C                    -0.089265
     91 H                     0.113835
     92 H                     0.126395
     93 H                     0.129647
     94 O                    -0.477127
     95 C                     0.626662
     96 C                    -0.275131
     97 H                     0.130882
     98 H                     0.138512
     99 C                    -0.185756
    100 H                     0.111357
    101 H                     0.137633
    102 C                    -0.197003
    103 H                     0.103936
    104 H                     0.111272
    105 C                     0.013468
    106 C                     0.082675
    107 C                    -0.089900
    108 H                     0.094825
    109 C                    -0.105371
    110 H                     0.091233
    111 C                    -0.084382
    112 H                     0.089062
    113 C                    -0.083871
    114 H                     0.089389
    115 C                    -0.098901
    116 H                     0.087598
    117 C                     0.013803
    118 C                    -0.014182
    119 C                     0.019163
    120 C                    -0.015044
    121 C                    -0.025121
    122 C                    -0.000425
    123 C                    -0.014770
    124 C                    -0.014946
    125 C                     0.019786
    126 C                     0.022096
    127 C                    -0.088878
    128 C                     0.018111
    129 C                    -0.020643
    130 C                    -0.016310
    131 C                     0.013261
    132 C                     0.000802
    133 C                    -0.078837
    134 C                     0.053186
    135 C                     0.004711
    136 C                     0.021926
    137 C                     0.016286
    138 C                    -0.016998
    139 C                     0.007217
    140 C                    -0.013754
    141 C                     0.016029
    142 C                    -0.002286
    143 C                     0.039012
    144 C                     0.016553
    145 C                    -0.010814
    146 C                    -0.006830
    147 C                    -0.039879
    148 C                     0.035250
    149 C                     0.009646
    150 C                     0.001218
    151 C                    -0.003410
    152 C                    -0.035276
    153 C                     0.013046
    154 C                    -0.010579
    155 C                     0.004307
    156 C                    -0.029005
    157 C                    -0.014594
    158 C                     0.026435
    159 C                    -0.001499
    160 C                    -0.050054
    161 C                    -0.019283
    162 C                    -0.005675
    163 C                     0.026311
    164 C                    -0.028520
    165 C                     0.005574
    166 C                    -0.019284
    167 C                     0.009252
    168 C                    -0.024647
    169 C                     0.016182
    170 C                    -0.011945
    171 C                     0.044078
    172 C                     0.016421
    173 C                    -0.011901
    174 C                     0.017663
    175 C                     0.001951
    176 C                     0.003019
  ----------------------------------------
  Sum of atomic charges =     0.000000

                    Cartesian Multipole Moments
 -----------------------------------------------------------------
    Charge (ESU x 10^10)
                 0.0000
    Dipole Moment (Debye)
         X       1.4337      Y       1.1349      Z      -1.9650
       Tot       2.6842
    Quadrupole Moments (Debye-Ang)
        XX    -827.6149     XY      21.7252     YY    -801.1622
        XZ      -2.0098     YZ      -9.4027     ZZ    -788.0800

 Total job time:  925.37s(wall), 7963.70s(cpu)
        *  Thank you very much for using Q-Chem.  Have a nice day.  *
