 Q-Chem 4.4, Q-Chem, Inc., Pleasanton, CA (2016)
 Q-Chem 4.4.2 for Intel X86 Linux

User input:
--------------------------------------------------------------
$comment
SP
$end

$rem
MEM_STATIC 5000
MEM_TOTAL 20000
JOBTYPE SP
EXCHANGE B3LYP
BASIS 6-31g(d,p)
$end

$molecule
0 1
O          11.463000    -20.291000    -12.010000
C          10.994000    -19.720000    -13.257000
H          10.069000    -20.208000    -13.588000
H          11.735000    -19.677000    -14.065000
H          10.664000    -18.677000    -13.180000
O          11.976000    -22.308000    -13.039000
C          11.747000    -21.650000    -11.994000
C          11.580000    -22.186000    -10.555000
H          10.511000    -22.264000    -10.324000
H          11.896000    -21.336000     -9.937000
C          12.371000    -23.431000    -10.203000
H          12.394000    -24.140000    -11.040000
H          13.428000    -23.200000    -10.019000
C          11.817000    -24.301000     -9.030000
H          10.751000    -24.517000     -9.174000
H          12.318000    -25.266000     -9.173000
C          12.283000    -23.794000     -7.636000
C          11.623000    -22.531000     -7.161000
C          10.260000    -22.583000     -6.973000
H           9.688000    -23.497000     -6.847000
C           9.587000    -21.413000     -6.622000
H           8.588000    -21.379000     -6.200000
C          10.250000    -20.201000     -6.652000
H           9.612000    -19.359000     -6.398000
C          11.574000    -20.123000     -7.010000
H          12.060000    -19.170000     -7.197000
C          12.358000    -21.296000     -7.158000
H          13.402000    -21.261000     -7.453000
C          16.123000    -22.998000     -3.845000
C          14.220000    -23.830000     -2.602000
C          15.879000    -27.930000     -1.452000
C          17.149000    -26.240000     -7.480000
C          14.110000    -29.532000     -4.053000
C          14.759000    -23.084000     -3.683000
C          16.510000    -28.890000     -6.660000
C          16.946000    -25.740000     -1.662000
C          11.877000    -26.238000     -4.823000
C          15.960000    -26.869000     -7.909000
C          12.578000    -24.926000     -6.672000
C          12.169000    -27.134000     -5.861000
C          14.275000    -28.236000     -7.429000
C          15.988000    -29.657000     -5.573000
C          12.839000    -24.054000     -4.321000
C          16.364000    -29.335000     -3.200000
C          13.736000    -24.064000     -7.087000
C          14.855000    -24.749000     -7.743000
C          14.963000    -29.361000     -2.976000
C          18.839000    -26.370000     -4.464000
C          17.977000    -27.584000     -2.762000
C          18.023000    -26.263000     -2.415000
C          16.482000    -24.521000     -1.901000
C          16.066000    -24.123000     -7.299000
C          12.205000    -24.903000     -5.260000
C          15.049000    -24.508000     -1.729000
C          15.647000    -28.182000     -7.522000
C          12.981000    -24.372000     -2.983000
C          12.764000    -28.385000     -5.510000
C          18.108000    -24.705000     -6.132000
C          15.910000    -26.552000     -1.175000
C          12.667000    -26.397000     -6.958000
C          18.019000    -24.158000     -3.707000
C          13.796000    -28.966000     -6.300000
C          12.124000    -26.589000     -3.468000
C          17.882000    -28.597000     -4.906000
C          17.678000    -28.201000     -6.250000
C          12.672000    -27.884000     -3.133000
C          17.215000    -24.897000     -7.211000
C          14.827000    -26.106000     -8.057000
C          18.615000    -26.056000     -5.795000
C          14.416000    -23.201000     -6.086000
C          13.513000    -26.389000     -1.648000
C          13.734000    -26.917000     -7.684000
C          12.922000    -28.783000     -4.147000
C          17.845000    -23.807000     -5.140000
C          14.694000    -28.527000     -1.897000
C          16.979000    -23.719000     -2.951000
C          16.869000    -28.386000     -2.309000
C          12.670000    -25.702000     -2.550000
C          13.519000    -27.761000     -2.014000
C          13.910000    -23.197000     -4.721000
C          15.776000    -23.166000     -6.256000
C          18.472000    -27.703000     -4.021000
C          14.732000    -25.777000     -1.281000
C          14.644000    -29.675000     -5.404000
C          18.063000    -26.926000     -6.712000
C          16.880000    -29.449000     -4.471000
C          16.690000    -23.089000     -5.164000
C          18.580000    -25.442000     -3.450000
O          17.904000    -10.521000     -9.488000
C          19.143000    -10.161000    -10.043000
H          19.271000    -10.419000    -11.102000
H          19.902000    -10.673000     -9.440000
H          19.293000     -9.094000     -9.834000
O          18.038000    -12.728000    -10.141000
C          17.447000    -11.754000     -9.643000
C          16.100000    -11.859000     -8.990000
H          15.426000    -11.191000     -9.540000
H          16.200000    -11.471000     -7.969000
C          15.602000    -13.305000     -8.837000
H          16.280000    -13.906000     -8.217000
H          14.773000    -13.234000     -8.122000
C          15.158000    -13.978000    -10.112000
H          14.348000    -13.370000    -10.534000
H          15.992000    -13.804000    -10.804000
C          14.750000    -15.439000     -9.896000
C          13.470000    -15.624000     -9.160000
C          12.300000    -15.363000     -9.866000
H          12.268000    -15.057000    -10.908000
C          11.045000    -15.455000     -9.256000
H          10.119000    -15.334000     -9.810000
C          10.966000    -15.968000     -7.968000
H          10.011000    -16.105000     -7.469000
C          12.164000    -16.197000     -7.244000
H          12.052000    -16.414000     -6.185000
C          13.411000    -15.949000     -7.799000
H          14.289000    -16.069000     -7.171000
C          16.726000    -20.184000     -8.000000
C          15.111000    -20.949000     -9.569000
C          18.048000    -22.340000    -12.702000
C          20.063000    -16.939000     -9.906000
C          17.835000    -19.442000    -14.648000
C          15.457000    -20.063000     -8.531000
C          20.277000    -17.680000    -12.595000
C          18.097000    -22.670000    -10.274000
C          14.721000    -18.220000    -12.466000
C          19.386000    -16.165000    -10.908000
C          15.166000    -16.535000    -10.888000
C          15.577000    -17.304000    -13.030000
C          18.247000    -16.366000    -12.990000
C          19.927000    -18.546000    -13.694000
C          14.362000    -18.855000    -10.152000
C          19.490000    -20.908000    -13.481000
C          15.835000    -16.425000     -9.549000
C          17.295000    -16.120000     -9.583000
C          18.297000    -20.753000    -14.233000
C          20.711000    -20.331000     -9.765000
C          20.081000    -21.789000    -11.366000
C          19.388000    -22.159000    -10.197000
C          17.197000    -22.196000     -9.302000
C          17.943000    -16.933000     -8.619000
C          14.474000    -17.829000    -11.147000
C          15.923000    -22.019000     -9.957000
C          19.499000    -16.518000    -12.266000
C          14.421000    -20.202000    -10.522000
C          16.513000    -17.728000    -14.009000
C          19.772000    -18.600000     -8.369000
C          17.378000    -22.772000    -11.510000
C          15.948000    -16.320000    -12.116000
C          18.859000    -20.875000     -8.209000
C          17.858000    -17.281000    -13.979000
C          14.782000    -19.576000    -12.867000
C          21.027000    -19.719000    -12.064000
C          21.059000    -18.381000    -11.650000
C          15.671000    -20.011000    -13.839000
C          19.333000    -17.305000     -8.764000
C          17.988000    -15.853000    -10.785000
C          20.662000    -19.047000     -9.393000
C          15.809000    -17.638000     -8.619000
C          15.401000    -21.623000    -12.230000
C          17.341000    -15.919000    -12.094000
C          16.518000    -19.066000    -14.431000
C          18.784000    -19.511000     -7.822000
C          17.394000    -21.633000    -13.686000
C          17.547000    -21.305000     -8.301000
C          19.384000    -21.935000    -12.617000
C          14.612000    -20.517000    -11.849000
C          16.059000    -21.272000    -13.429000
C          15.044000    -18.779000     -8.924000
C          17.088000    -17.819000     -8.032000
C          20.897000    -20.689000    -11.116000
C          16.033000    -22.468000    -11.240000
C          18.684000    -18.373000    -14.353000
C          20.832000    -18.014000    -10.267000
C          20.362000    -19.810000    -13.318000
C          17.509000    -19.080000     -7.673000
C          19.808000    -21.290000     -9.160000
$end

--------------------------------------------------------------

             Standard Nuclear Orientation (Angstroms)
    I     Atom           X                Y                Z
 ----------------------------------------------------------------
    1      O       2.5594173906    -3.6170234527     3.9527285032
    2      C       3.6356671888    -3.9614030833     4.8605280637
    3      H       3.2704133801    -4.5932636988     5.6794736161
    4      H       4.2230854567    -3.1155831849     5.2391076168
    5      H       4.4047937103    -4.6096048816     4.4235419968
    6      O       1.5303191268    -2.2900340827     5.5559611674
    7      C       1.4717863800    -2.9325008885     4.4783525553
    8      C       0.2228170254    -3.2287389543     3.6191526021
    9      H      -0.1307505490    -4.2429632756     3.8394818931
   10      H       0.6380386463    -3.3352653228     2.6089431494
   11      C      -0.8752387564    -2.1831073826     3.6423499344
   12      H      -1.0032402683    -1.7599879361     4.6465234985
   13      H      -0.6222783862    -1.3171036161     3.0174383186
   14      C      -2.3150789316    -2.6756557863     3.2902116945
   15      H      -2.5787294033    -3.5632811048     3.8787333362
   16      H      -2.9577698085    -1.8794711697     3.6848171849
   17      C      -2.5811562751    -2.7029684460     1.7585792759
   18      C      -1.8968088923    -3.8108875070     1.0098616963
   19      C      -2.2506294646    -5.0959855092     1.3550444412
   20      H      -3.1615677915    -5.3662614965     1.8800189693
   21      C      -1.5778176457    -6.1601654096     0.7551482868
   22      H      -1.9317690494    -7.1857504203     0.7435383887
   23      C      -0.4588791630    -5.9195919837    -0.0191346709
   24      H       0.0010058515    -6.8279021212    -0.3986112413
   25      C       0.0026653012    -4.6421505952    -0.2249117511
   26      H       0.9657291768    -4.4505199899    -0.6887648340
   27      C      -0.7657420675    -3.5179987047     0.1729847715
   28      H      -0.4168015485    -2.4996845797     0.0334754278
   29      C      -3.3918500309    -0.2148260406    -3.0271098077
   30      C      -5.0450136972    -1.9823057599    -2.9853086757
   31      C      -8.8010709888     0.5880461380    -2.5728699000
   32      C      -3.9403596412     2.5304704605     1.0885856777
   33      C      -8.9842971072     0.0121155560     0.9050171244
   34      C      -3.7598012299    -1.4846193207    -2.6445226398
   35      C      -6.6719233195     2.5921587470     1.8873193172
   36      C      -6.7147837815     0.9350624686    -3.7999291304
   37      C      -6.1880776031    -2.9187782397     0.7613402539
   38      C      -4.4093658097     1.7195715717     2.1449375159
   39      C      -3.9939040025    -2.2831646526     1.4041027127
   40      C      -6.3202651178    -2.1450643327     1.9229844555
   41      C      -6.0570762349     0.4852517923     2.9814893892
   42      C      -7.9751306345     2.1154799290     1.5456030628
   43      C      -4.5091007370    -2.8201375782    -1.0046186082
   44      C      -8.9389144134     1.8522589730    -0.6630219746
   45      C      -2.8793269224    -1.3923479015     0.9346387116
   46      C      -2.9177366519    -0.0017298392     1.3998570447
   47      C      -9.2966138092     0.5161292363    -0.3460654020
   48      C      -5.4249352448     3.4860111455    -1.8866846086
   49      C      -7.4830902621     2.7024013933    -2.4001022565
   50      C      -6.5732022177     2.2569957253    -3.3173173554
   51      C      -5.6493930743     0.1757800776    -4.0162873791
   52      C      -2.4559744174     0.8272346527     0.3250889256
   53      C      -4.7980859525    -2.9390815009     0.3762571604
   54      C      -5.9515739542    -1.1909739761    -3.6642759123
   55      C      -5.7517624448     1.7576203599     2.5550967090
   56      C      -5.4758644414    -2.8770052376    -1.9913637673
   57      C      -7.4527711641    -1.2786639579     2.0178920194
   58      C      -3.2568468310     2.6474748503    -1.0590013895
   59      C      -7.8084268860     0.1259819246    -3.4547589791
   60      C      -5.0400894352    -1.6790509559     2.2952259825
   61      C      -4.1342621208     1.8724880591    -3.2538346138
   62      C      -7.3459186233     0.0277438263     2.5733794054
   63      C      -7.1752291617    -2.8718384294    -0.2602092821
   64      C      -7.1712122425     3.3925477411    -0.1510224181
   65      C      -6.1462704652     3.3689421357     0.8255558577
   66      C      -8.3425999480    -2.0317103919    -0.1153495992
   67      C      -2.9669201992     2.1134573146     0.2174475205
   68      C      -3.8725032581     0.4644957062     2.3009028086
   69      C      -4.4778394108     3.4667651616    -0.8752637895
   70      C      -2.6053641077    -1.2485620930    -0.5191288137
   71      C      -7.7845320342    -2.0408161027    -2.3144422051
   72      C      -4.9122101322    -0.3731139431     2.7579790509
   73      C      -8.4967219501    -1.3010740477     1.0428014881
   74      C      -3.0936079339     1.9098559305    -2.1943024032
   75      C      -9.2343534947    -0.2257242261    -1.5199202029
   76      C      -4.3411812327     0.6104225924    -3.7123455066
   77      C      -8.5610626614     1.8308948710    -2.0070006309
   78      C      -6.8569510411    -2.8416792199    -1.6112823594
   79      C      -8.7182672282    -1.5272603936    -1.3759460032
   80      C      -3.4201237715    -2.0114675725    -1.4536976552
   81      C      -2.2758096196     0.0352089276    -0.8699147968
   82      C      -6.8225067687     3.4683186079    -1.4938642808
   83      C      -7.2913343191    -1.1835112384    -3.3228956664
   84      C      -8.2876493658     0.8414066126     1.8836714391
   85      C      -4.7835382879     3.4255209037     0.4691097106
   86      C      -8.2644728308     2.6386198241     0.2433213177
   87      C      -2.6645554802     0.6218416812    -2.1102888003
   88      C      -5.2482397751     2.7379746583    -3.0553082113
   89      O      10.2478934843    -1.2576957260    -4.9141070673
   90      C      11.0362046538    -0.1047621816    -5.0626188255
   91      H      11.4172365342     0.3221187256    -4.1261272894
   92      H      10.4025018196     0.6279334264    -5.5758554804
   93      H      11.8271035802    -0.3448022185    -5.7847889363
   94      O       8.7998000326    -0.3027350352    -3.3954598291
   95      C       9.2435428321    -1.2613392416    -4.0513037918
   96      C       8.5961339233    -2.6150498093    -4.0644340448
   97      H       9.3429593847    -3.3293199726    -3.6969155226
   98      H       8.3780325198    -2.8635081398    -5.1102281143
   99      C       7.2424799764    -2.6562111939    -3.3376220110
  100      H       6.5136312288    -1.9742582302    -3.7947922838
  101      H       6.7861875948    -3.5991125146    -3.6635688806
  102      C       7.3102620967    -2.5821956402    -1.8324252524
  103      H       7.9172475840    -3.4310346566    -1.4934725384
  104      H       7.9572023019    -1.7162750009    -1.6417794621
  105      C       5.9238335326    -2.5489508247    -1.1810024875
  106      C       5.1755880292    -3.8334955557    -1.2472935177
  107      C       5.5948681092    -4.8457280780    -0.3899449681
  108      H       6.4079964751    -4.7469970857     0.3238466343
  109      C       4.9956233439    -6.1091480936    -0.4062107401
  110      H       5.2542019363    -6.8845329510     0.3085958313
  111      C       3.8610551968    -6.2986997058    -1.1841434530
  112      H       3.3308354913    -7.2466325886    -1.1933799909
  113      C       3.4627316241    -5.2744474547    -2.0808410930
  114      H       2.6918227231    -5.5378996283    -2.8001507749
  115      C       4.1597617411    -4.0790683096    -2.1796121192
  116      H       3.8545077492    -3.3643158186    -2.9383063113
  117      C       1.2789065329     0.3560567713    -1.1820201252
  118      C       1.2507411404    -0.5612326177     1.0118344478
  119      C       2.2515995172     3.2648392076     3.1880687865
  120      C       5.5045429961     2.8377132294    -2.3150725093
  121      C       5.6682913738     2.5794953113     3.4833813342
  122      C       1.4724427078    -0.7415905958    -0.3667428677
  123      C       6.3841003626     3.8458155363     0.1416949965
  124      C       0.6693419666     2.8912859253     1.3541102295
  125      C       5.0166431377    -1.1529307291     2.2201495938
  126      C       6.5836721448     2.1847029309    -1.6291666627
  127      C       5.6205026560    -1.6078345430    -0.0060018391
  128      C       6.2103734791    -0.5263545129     1.9512665014
  129      C       7.3725978332     1.6416166784     0.5514524192
  130      C       6.2113976973     4.0293330938     1.5618189684
  131      C       3.1817885196    -1.7839834961     0.7635154819
  132      C       4.0779661813     4.3183161409     2.6482538561
  133      C       5.0874683876    -1.3112992681    -1.3773235735
  134      C       5.5815753320    -0.0487455530    -1.9998968174
  135      C       4.4311254040     3.3278653764     3.6006528516
  136      C       2.7257137425     4.4682211992    -1.0640726132
  137      C       2.2934725252     4.6858958780     1.1385735826
  138      C       1.2474785140     3.9091666422     0.6035051545
  139      C       0.3956053209     1.7013351555     0.6551499914
  140      C       4.4864048287     0.5978111801    -2.6265825118
  141      C       4.5861753943    -1.7874294189     1.0514922726
  142      C       0.7018993531     0.6082060322     1.5465997575
  143      C       7.0461483696     2.6917322548    -0.4001105182
  144      C       2.2789944995    -1.2283586596     1.6751261436
  145      C       6.5347224558     0.6827610198     2.6199595326
  146      C       3.2542048417     2.7576961886    -2.6832388635
  147      C       1.1454433902     2.5238413113     2.6554068483
  148      C       6.5841205543    -0.6875823676     0.6187456938
  149      C       1.1484371494     2.5904972919    -1.4292129648
  150      C       7.0937710593     1.7807310920     1.9187745503
  151      C       4.1235396607    -0.5859730235     3.1604597232
  152      C       4.5268440485     5.0634647010     0.4061028167
  153      C       5.4122800256     4.5853797386    -0.5686288896
  154      C       4.4278028322     0.5815983768     3.8449529282
  155      C       4.4708301783     2.0313092795    -2.8172382988
  156      C       6.5603985465     0.7673088725    -1.3897310289
  157      C       3.5769200372     3.9411300771    -1.9512387718
  158      C       3.5770700908    -1.1558027161    -1.5547011575
  159      C       2.1820944301     0.4901932610     3.3880460695
  160      C       7.1168712350     0.4709072238    -0.0710459984
  161      C       5.6592967726     1.1967958421     3.5883350149
  162      C       2.0535978363     2.0110954056    -2.3570424669
  163      C       3.2691492943     2.6501999899     3.8827860550
  164      C       0.6421223416     1.5310700067    -0.6971151962
  165      C       2.7447409660     4.3557971986     2.4650416962
  166      C       2.7679929144    -0.6677266144     2.8340943313
  167      C       3.2233066649     1.2469398393     3.9685438716
  168      C       2.6828820253    -1.4409125848    -0.5062398724
  169      C       3.3051288048    -0.0421730150    -2.3907919574
  170      C       3.1914499180     5.0428434716     0.1362856911
  171      C       1.0439362153     1.1263695249     2.7608103570
  172      C       6.5213086804     2.9669945021     2.4476241948
  173      C       4.9303340455     3.9631298439    -1.7849512732
  174      C       5.0300715800     4.7464056105     1.6981003339
  175      C       2.1333576323     0.6646649628    -2.2372491538
  176      C       1.4670218497     3.8028019135    -0.7919937772
 ----------------------------------------------------------------

    9   -5804.2796374738      9.20E-06 Convergence criterion met
 Total energy in the final basis set = -5804.2796374738

                    Orbital Energies (a.u.)
 --------------------------------------------------------------

 Alpha MOs
 -- Occupied --
-19.210 -19.189 -19.142 -19.135 -10.324 -10.319 -10.253 -10.241
-10.236 -10.235 -10.235 -10.234 -10.234 -10.230 -10.225 -10.224
-10.224 -10.222 -10.222 -10.221 -10.221 -10.220 -10.220 -10.220
-10.219 -10.218 -10.218 -10.218 -10.218 -10.217 -10.216 -10.216
-10.216 -10.216 -10.216 -10.216 -10.216 -10.215 -10.215 -10.215
-10.215 -10.215 -10.214 -10.214 -10.214 -10.214 -10.214 -10.213
-10.213 -10.213 -10.213 -10.213 -10.213 -10.213 -10.213 -10.213
-10.212 -10.212 -10.212 -10.212 -10.212 -10.212 -10.212 -10.212
-10.212 -10.212 -10.212 -10.212 -10.212 -10.211 -10.211 -10.211
-10.211 -10.211 -10.211 -10.211 -10.211 -10.211 -10.211 -10.211
-10.211 -10.211 -10.211 -10.210 -10.210 -10.210 -10.210 -10.210
-10.210 -10.210 -10.210 -10.210 -10.210 -10.209 -10.209 -10.209
-10.209 -10.209 -10.209 -10.209 -10.209 -10.209 -10.209 -10.208
-10.208 -10.208 -10.208 -10.208 -10.208 -10.207 -10.207 -10.207
-10.207 -10.206 -10.206 -10.206 -10.206 -10.206 -10.205 -10.205
-10.205 -10.204 -10.204 -10.204 -10.204 -10.203 -10.203 -10.203
-10.202 -10.202 -10.202 -10.202 -10.201 -10.201 -10.201 -10.201
-10.200 -10.200 -10.200 -10.199 -10.198 -10.197 -10.195 -10.194
-10.193 -10.192 -10.190 -10.186  -1.121  -1.075  -1.015  -0.989
 -0.980  -0.979  -0.963  -0.962  -0.961  -0.958  -0.956  -0.955
 -0.932  -0.929  -0.925  -0.923  -0.921  -0.921  -0.920  -0.917
 -0.917  -0.916  -0.893  -0.893  -0.886  -0.885  -0.882  -0.880
 -0.876  -0.870  -0.857  -0.853  -0.839  -0.838  -0.837  -0.836
 -0.834  -0.830  -0.821  -0.815  -0.810  -0.797  -0.796  -0.795
 -0.793  -0.792  -0.791  -0.789  -0.788  -0.788  -0.781  -0.780
 -0.769  -0.768  -0.768  -0.766  -0.765  -0.763  -0.763  -0.760
 -0.758  -0.755  -0.749  -0.740  -0.731  -0.726  -0.716  -0.715
 -0.711  -0.711  -0.710  -0.710  -0.709  -0.707  -0.707  -0.705
 -0.704  -0.704  -0.703  -0.701  -0.697  -0.697  -0.671  -0.670
 -0.656  -0.655  -0.655  -0.654  -0.645  -0.643  -0.631  -0.628
 -0.625  -0.625  -0.622  -0.620  -0.618  -0.616  -0.616  -0.614
 -0.613  -0.612  -0.612  -0.611  -0.609  -0.608  -0.606  -0.606
 -0.606  -0.603  -0.600  -0.600  -0.574  -0.565  -0.561  -0.560
 -0.557  -0.556  -0.555  -0.555  -0.554  -0.552  -0.551  -0.549
 -0.535  -0.532  -0.530  -0.529  -0.526  -0.525  -0.523  -0.523
 -0.520  -0.520  -0.515  -0.514  -0.513  -0.512  -0.510  -0.509
 -0.508  -0.506  -0.502  -0.501  -0.490  -0.490  -0.488  -0.485
 -0.483  -0.483  -0.481  -0.480  -0.478  -0.477  -0.476  -0.472
 -0.471  -0.470  -0.469  -0.466  -0.465  -0.464  -0.463  -0.462
 -0.461  -0.461  -0.460  -0.460  -0.459  -0.458  -0.457  -0.456
 -0.455  -0.452  -0.451  -0.449  -0.447  -0.443  -0.443  -0.441
 -0.440  -0.439  -0.437  -0.437  -0.434  -0.433  -0.433  -0.431
 -0.430  -0.429  -0.428  -0.426  -0.424  -0.424  -0.423  -0.420
 -0.420  -0.419  -0.418  -0.418  -0.417  -0.416  -0.415  -0.415
 -0.414  -0.413  -0.412  -0.411  -0.411  -0.410  -0.410  -0.409
 -0.409  -0.408  -0.408  -0.406  -0.399  -0.397  -0.396  -0.393
 -0.393  -0.390  -0.388  -0.386  -0.385  -0.383  -0.380  -0.378
 -0.376  -0.376  -0.375  -0.372  -0.368  -0.367  -0.366  -0.363
 -0.362  -0.361  -0.360  -0.358  -0.358  -0.357  -0.356  -0.356
 -0.355  -0.354  -0.353  -0.352  -0.352  -0.350  -0.349  -0.346
 -0.346  -0.345  -0.345  -0.344  -0.343  -0.342  -0.340  -0.340
 -0.339  -0.339  -0.338  -0.337  -0.336  -0.334  -0.333  -0.332
 -0.330  -0.329  -0.327  -0.327  -0.325  -0.323  -0.318  -0.317
 -0.310  -0.308  -0.302  -0.294  -0.283  -0.282  -0.275  -0.270
 -0.269  -0.267  -0.266  -0.265  -0.264  -0.263  -0.261  -0.260
 -0.259  -0.258  -0.257  -0.256  -0.255  -0.254  -0.252  -0.251
 -0.250  -0.248  -0.245  -0.239  -0.215  -0.214  -0.211  -0.208
 -0.207  -0.206  -0.202  -0.200  -0.197  -0.195

          Ground-State Mulliken Net Atomic Charges

     Atom                 Charge (a.u.)
  ----------------------------------------
      1 O                    -0.470978
      2 C                    -0.082509
      3 H                     0.118993
      4 H                     0.130221
      5 H                     0.115260
      6 O                    -0.491839
      7 C                     0.606523
      8 C                    -0.253808
      9 H                     0.135484
     10 H                     0.142269
     11 C                    -0.188530
     12 H                     0.121582
     13 H                     0.113019
     14 C                    -0.195456
     15 H                     0.110650
     16 H                     0.107283
     17 C                     0.025939
     18 C                     0.077186
     19 C                    -0.105718
     20 H                     0.093070
     21 C                    -0.095627
     22 H                     0.088462
     23 C                    -0.066751
     24 H                     0.080427
     25 C                    -0.113924
     26 H                     0.099190
     27 C                    -0.093573
     28 H                     0.104829
     29 C                    -0.025705
     30 C                     0.004836
     31 C                    -0.021074
     32 C                     0.014237
     33 C                    -0.010900
     34 C                     0.016994
     35 C                    -0.009234
     36 C                     0.044105
     37 C                    -0.021354
     38 C                     0.008748
     39 C                    -0.088730
     40 C                    -0.002071
     41 C                    -0.045936
     42 C                    -0.017920
     43 C                     0.012943
     44 C                    -0.011964
     45 C                    -0.082619
     46 C                     0.052274
     47 C                     0.022873
     48 C                     0.008697
     49 C                     0.023186
     50 C                    -0.022445
     51 C                    -0.015469
     52 C                    -0.037478
     53 C                     0.037077
     54 C                    -0.009181
     55 C                     0.017587
     56 C                    -0.025696
     57 C                    -0.000389
     58 C                    -0.008767
     59 C                    -0.011276
     60 C                     0.037017
     61 C                    -0.021923
     62 C                     0.008464
     63 C                     0.011697
     64 C                     0.013002
     65 C                     0.000478
     66 C                     0.000332
     67 C                     0.017107
     68 C                    -0.005930
     69 C                    -0.010384
     70 C                     0.002500
     71 C                    -0.013024
     72 C                    -0.007162
     73 C                    -0.016368
     74 C                     0.003924
     75 C                    -0.003837
     76 C                     0.015626
     77 C                     0.016111
     78 C                    -0.009069
     79 C                     0.003804
     80 C                     0.008021
     81 C                     0.016684
     82 C                    -0.023077
     83 C                     0.002686
     84 C                     0.004428
     85 C                    -0.008316
     86 C                     0.004410
     87 C                     0.011467
     88 C                    -0.009910
     89 O                    -0.434390
     90 C                    -0.091970
     91 H                     0.135739
     92 H                     0.128843
     93 H                     0.124961
     94 O                    -0.492477
     95 C                     0.616022
     96 C                    -0.279083
     97 H                     0.131543
     98 H                     0.135728
     99 C                    -0.171699
    100 H                     0.110926
    101 H                     0.096190
    102 C                    -0.189414
    103 H                     0.098294
    104 H                     0.138282
    105 C                     0.017522
    106 C                     0.093790
    107 C                    -0.099595
    108 H                     0.090357
    109 C                    -0.088279
    110 H                     0.089310
    111 C                    -0.081004
    112 H                     0.088708
    113 C                    -0.103454
    114 H                     0.091101
    115 C                    -0.099565
    116 H                     0.100039
    117 C                    -0.001998
    118 C                     0.010182
    119 C                     0.004408
    120 C                    -0.003202
    121 C                    -0.019123
    122 C                    -0.045455
    123 C                     0.004988
    124 C                    -0.003188
    125 C                     0.008964
    126 C                    -0.006008
    127 C                    -0.094600
    128 C                    -0.004494
    129 C                    -0.009331
    130 C                     0.008053
    131 C                    -0.004440
    132 C                     0.033095
    133 C                    -0.096514
    134 C                     0.042437
    135 C                    -0.009789
    136 C                    -0.004498
    137 C                    -0.022898
    138 C                     0.014245
    139 C                    -0.013129
    140 C                     0.007301
    141 C                     0.046295
    142 C                     0.037437
    143 C                    -0.019657
    144 C                     0.007236
    145 C                    -0.007276
    146 C                    -0.043179
    147 C                    -0.005585
    148 C                     0.021644
    149 C                    -0.020098
    150 C                    -0.003177
    151 C                    -0.012074
    152 C                    -0.001749
    153 C                    -0.023107
    154 C                     0.014513
    155 C                    -0.013990
    156 C                     0.031001
    157 C                     0.035791
    158 C                     0.005439
    159 C                     0.011880
    160 C                     0.014187
    161 C                     0.009454
    162 C                    -0.017131
    163 C                    -0.002049
    164 C                     0.017743
    165 C                    -0.007232
    166 C                    -0.002597
    167 C                     0.009616
    168 C                     0.003619
    169 C                    -0.000176
    170 C                     0.014952
    171 C                    -0.038737
    172 C                    -0.005397
    173 C                     0.011960
    174 C                    -0.008721
    175 C                     0.038068
    176 C                    -0.006114
  ----------------------------------------
  Sum of atomic charges =     0.000000

                    Cartesian Multipole Moments
 -----------------------------------------------------------------
    Charge (ESU x 10^10)
                 0.0000
    Dipole Moment (Debye)
         X       6.2273      Y      -5.9619      Z      -2.9409
       Tot       9.1089
    Quadrupole Moments (Debye-Ang)
        XX    -767.1646     XY     -21.8019     YY    -779.1718
        XZ     -29.2700     YZ      -3.6709     ZZ    -807.0480

 Total job time:  890.37s(wall), 7615.86s(cpu)
        *  Thank you very much for using Q-Chem.  Have a nice day.  *
