 Q-Chem 4.4, Q-Chem, Inc., Pleasanton, CA (2016)
 Q-Chem 4.4.2 for Intel X86 Linux

User input:
--------------------------------------------------------------
$comment
SP
$end

$rem
MEM_STATIC 5000
MEM_TOTAL 20000
JOBTYPE SP
EXCHANGE B3LYP
BASIS 6-31g(d,p)
$end

$molecule
0 1
O          -9.110000     33.346000    -13.472000
C          -8.065000     33.719000    -14.353000
H          -8.282000     33.494000    -15.405000
H          -7.133000     33.241000    -14.030000
H          -7.714000     34.757000    -14.303000
O          -7.977000     34.032000    -11.619000
C          -8.986000     33.520000    -12.150000
C         -10.190000     33.064000    -11.302000
H         -11.011000     33.775000    -11.459000
H          -9.902000     33.233000    -10.257000
C         -10.724000     31.676000    -11.607000
H         -11.710000     31.477000    -11.171000
H         -10.937000     31.683000    -12.683000
C          -9.885000     30.527000    -11.135000
H          -8.943000     30.545000    -11.696000
H          -9.534000     30.691000    -10.109000
C         -10.543000     29.061000    -11.315000
C         -10.968000     28.763000    -12.735000
C          -9.947000     28.257000    -13.427000
H          -8.948000     28.167000    -13.011000
C         -10.120000     27.794000    -14.774000
H          -9.251000     27.381000    -15.276000
C         -11.355000     28.076000    -15.404000
H         -11.461000     27.854000    -16.461000
C         -12.444000     28.597000    -14.684000
H         -13.419000     28.721000    -15.146000
C         -12.266000     28.853000    -13.292000
H         -13.062000     29.162000    -12.621000
C         -13.820000     25.238000     -9.107000
C         -11.985000     23.935000     -9.957000
C         -10.214000     22.865000     -5.958000
C         -12.136000     28.913000     -6.041000
C          -7.753000     25.243000     -6.207000
C         -12.815000     25.022000    -10.052000
C          -9.815000     27.970000     -4.751000
C         -12.532000     22.944000     -6.582000
C          -8.578000     26.001000    -10.024000
C         -10.909000     29.261000     -6.530000
C          -9.885000     27.968000    -10.391000
C          -8.152000     26.994000     -9.181000
C          -8.882000     28.419000     -6.907000
C          -8.960000     26.836000     -4.707000
C         -10.863000     25.598000    -10.905000
C          -9.480000     24.507000     -4.565000
C         -11.323000     28.466000    -10.158000
C         -11.681000     29.101000     -8.879000
C          -8.509000     24.233000     -5.564000
C         -13.296000     25.881000     -4.822000
C         -11.811000     24.098000     -4.586000
C         -12.843000     23.718000     -5.434000
C         -13.131000     23.240000     -7.848000
C         -12.904000     28.629000     -8.421000
C          -9.745000     26.477000    -10.672000
C         -12.164000     23.054000     -8.890000
C          -9.766000     28.698000     -5.931000
C         -10.737000     24.282000    -10.523000
C          -7.590000     26.648000     -7.963000
C         -13.855000     27.515000     -6.429000
C         -11.264000     22.474000     -6.818000
C          -8.985000     28.117000     -9.293000
C         -14.306000     25.146000     -6.862000
C          -7.964000     27.395000     -6.817000
C          -8.513000     24.608000     -9.665000
C         -11.000000     26.225000     -3.871000
C         -11.084000     27.579000     -4.276000
C          -7.897000     24.268000     -8.394000
C         -13.129000     28.541000     -6.996000
C         -10.666000     29.355000     -7.940000
C         -13.312000     27.172000     -5.197000
C         -12.388000     27.430000    -10.225000
C          -9.725000     22.954000     -8.748000
C          -9.351000     28.835000     -8.130000
C          -7.477000     25.300000     -7.539000
C         -14.360000     26.509000     -7.244000
C          -8.964000     23.235000     -6.442000
C         -13.965000     24.382000     -7.999000
C         -10.505000     23.656000     -4.800000
C          -9.630000     23.767000     -9.912000
C          -8.695000     23.238000     -7.875000
C         -12.177000     26.108000    -10.664000
C         -13.304000     27.614000     -9.204000
C         -12.108000     25.390000     -4.150000
C         -10.994000     22.512000     -8.240000
C          -8.050000     26.538000     -5.760000
C         -12.239000     28.061000     -4.948000
C          -9.647000     25.801000     -4.054000
C         -14.051000     26.556000     -8.617000
C         -13.717000     24.875000     -5.632000
O         -11.316000     10.157000     -6.717000
C         -10.759000      8.852000     -7.027000
H         -10.742000      8.671000     -8.109000
H         -11.431000      8.090000     -6.613000
H          -9.752000      8.672000     -6.630000
O          -9.480000     11.193000     -7.706000
C         -10.552000     11.265000     -7.178000
C         -11.343000     12.523000     -6.927000
H         -12.342000     12.424000     -7.370000
H         -10.760000     13.291000     -7.450000
C         -11.456000     12.940000     -5.482000
H         -11.855000     12.090000     -4.915000
H         -10.503000     13.255000     -5.038000
C         -12.517000     14.080000     -5.209000
H         -13.446000     13.689000     -5.643000
H         -12.615000     14.249000     -4.130000
C         -12.334000     15.488000     -5.911000
C         -11.081000     16.146000     -5.373000
C          -9.847000     15.914000     -5.935000
H          -9.855000     15.487000     -6.933000
C          -8.657000     16.032000     -5.147000
H          -7.710000     15.657000     -5.522000
C          -8.760000     16.659000     -3.914000
H          -7.852000     16.794000     -3.333000
C          -9.961000     17.082000     -3.354000
H          -9.957000     17.418000     -2.321000
C         -11.148000     16.841000     -4.125000
H         -12.135000     17.040000     -3.719000
C         -14.366000     20.303000     -7.529000
C         -12.611000     19.849000     -9.216000
C         -15.472000     18.912000    -12.570000
C         -17.612000     16.433000     -7.340000
C         -15.227000     15.448000    -12.287000
C         -13.077000     19.769000     -7.882000
C         -17.780000     15.223000     -9.782000
C         -15.506000     20.703000    -10.934000
C         -12.113000     15.856000     -9.659000
C         -16.917000     15.240000     -7.576000
C         -12.708000     15.704000     -7.347000
C         -13.016000     14.792000     -9.620000
C         -15.700000     14.034000     -9.103000
C         -17.381000     15.217000    -11.075000
C         -11.883000     17.937000     -8.263000
C         -16.959000     17.177000    -12.542000
C         -13.463000     16.396000     -6.275000
C         -15.000000     16.072000     -6.248000
C         -15.651000     16.704000    -12.797000
C         -18.220000     19.221000     -9.327000
C         -17.460000     19.300000    -11.359000
C         -16.821000     20.330000    -10.652000
C         -14.612000     21.032000     -9.901000
C         -15.672000     17.299000     -6.064000
C         -11.965000     16.498000     -8.389000
C         -13.342000     20.470000    -10.201000
C         -16.952000     14.615000     -8.775000
C         -11.857000     18.689000     -9.428000
C         -13.892000     14.507000    -10.696000
C         -17.371000     18.672000     -7.130000
C         -14.821000     19.938000    -11.901000
C         -13.495000     14.716000     -8.254000
C         -16.478000     20.628000     -8.271000
C         -15.206000     14.113000    -10.435000
C         -12.146000     16.684000    -10.797000
C         -18.469000     17.211000    -10.658000
C         -18.470000     16.386000     -9.541000
C         -13.046000     16.468000    -11.845000
C         -16.956000     17.454000     -6.586000
C         -15.611000     15.093000     -7.121000
C         -18.270000     18.430000     -8.164000
C         -13.491000     17.874000     -6.396000
C         -12.827000     18.716000    -11.613000
C         -14.826000     14.472000     -8.085000
C         -13.908000     15.321000    -11.842000
C         -16.510000     19.772000     -7.131000
C         -14.733000     17.811000    -12.805000
C         -15.137000     20.913000     -8.541000
C         -16.829000     18.560000    -12.376000
C         -12.028000     18.096000    -10.690000
C         -13.419000     17.708000    -12.356000
C         -12.639000     18.617000     -7.249000
C         -14.777000     18.346000     -6.160000
C         -18.342000     18.578000    -10.530000
C         -13.507000     19.861000    -11.432000
C         -16.080000     14.691000    -11.423000
C         -18.429000     17.023000     -8.307000
C         -17.853000     16.433000    -11.699000
C         -15.223000     19.601000     -6.668000
C         -17.297000     20.332000     -9.412000
$end

--------------------------------------------------------------

             Standard Nuclear Orientation (Angstroms)
    I     Atom           X                Y                Z
 ----------------------------------------------------------------
    1      O     -12.3528792964    -2.9234258687    -2.3674840094
    2      C     -13.0665703901    -3.0447156230    -3.5853710395
    3      H     -12.8855568827    -3.9955455732    -4.1026470934
    4      H     -12.8272076531    -2.1913444533    -4.2302742314
    5      H     -14.1519474576    -2.8908575003    -3.5475649612
    6      O     -13.1495251435    -0.8306516494    -1.9508961301
    7      C     -12.4364034928    -1.8066981792    -1.6331278451
    8      C     -11.6036467464    -1.7984077032    -0.3357830685
    9      H     -12.0815749290    -2.4741889836     0.3847135056
   10      H     -11.7504096222    -0.8061176343     0.1084590700
   11      C     -10.1560806760    -2.2331738901    -0.4781060622
   12      H      -9.6643253657    -2.4492169382     0.4776110069
   13      H     -10.2009492974    -3.2218418771    -0.9510927621
   14      C      -9.2347358498    -1.2547824215    -1.1420185906
   15      H      -9.5520534601    -1.1485463911    -2.1862563222
   16      H      -9.3951335253    -0.2399901445    -0.7582970508
   17      C      -7.6682924010    -1.6557141614    -1.1366649135
   18      C      -7.3942962100    -3.0178168972    -1.7328454434
   19      C      -7.2411720136    -2.9224123990    -3.0537511790
   20      H      -7.3838905246    -1.9899801842    -3.5916717971
   21      C      -6.8693960156    -4.0620264010    -3.8422748208
   22      H      -6.7483654080    -3.9127405506    -4.9103568995
   23      C      -6.8670564981    -5.3228828832    -3.2004925695
   24      H      -6.7188932407    -6.2123206196    -3.8044107445
   25      C      -7.0140219356    -5.4374416359    -1.8072806501
   26      H      -6.9143792076    -6.3956015799    -1.3058368860
   27      C      -7.1844578351    -4.2401017160    -1.0508332162
   28      H      -7.2101846604    -4.2014043347     0.0341454210
   29      C      -2.9321295333    -1.4798543239     1.6502969823
   30      C      -2.2444182046    -0.9573913248    -0.5950581217
   31      C      -1.3360613262     3.3908444398     0.1405202335
   32      C      -6.6376970628     1.6404129982     3.1584541765
   33      C      -4.2954220805     4.4323068733    -1.2490645697
   34      C      -3.0754214962    -1.6228243745     0.2687279547
   35      C      -6.2362808620     4.1322784101     1.9055129158
   36      C      -0.8502119808     1.5124319749     1.5562384347
   37      C      -5.1399132524     0.8177552496    -2.6796341139
   38      C      -7.3412662193     1.9431023885     2.0274707216
   39      C      -6.7127220148    -0.4273552585    -1.3804037958
   40      C      -6.1321689229     1.6553533543    -2.2414194411
   41      C      -7.1054805096     2.9164088822     0.0382745100
   42      C      -5.3713058538     4.7758936237     0.9800429314
   43      C      -4.2228042668    -1.2034436072    -1.5690210896
   44      C      -2.9847839707     4.7926018445     0.8420605530
   45      C      -6.7876762110    -1.1364603886    -0.0159666287
   46      C      -7.1892871685    -0.3810226666     1.1820536077
   47      C      -3.0681133060     4.5914999420    -0.5609833689
   48      C      -3.3111811302     2.2048754128     3.9586159928
   49      C      -1.9738966478     3.4337073820     2.4951775060
   50      C      -1.4092999050     2.1781585963     2.6778131128
   51      C      -1.0865524913     0.1170542100     1.3412103986
   52      C      -6.3704827962    -0.6949688074     2.2587495818
   53      C      -5.3434761520    -0.4348332383    -2.0487987742
   54      C      -1.2570803597    -0.1288198429    -0.0609005800
   55      C      -7.0521225577     3.1501029953     1.3628170690
   56      C      -2.9593992253    -0.7038750196    -1.7878701869
   57      C      -5.8422183937     2.9949078821    -2.0399092483
   58      C      -4.8725940647     0.4389942868     3.8662065949
   59      C      -0.7571741641     2.1160275942     0.3268335815
   60      C      -6.9984294972     0.9712710767    -1.3758640964
   61      C      -2.5166991350     0.0394879980     3.3247227026
   62      C      -6.3588043104     3.6242018738    -0.8787335241
   63      C      -3.7883923717     1.2697715594    -2.8860985531
   64      C      -4.1684125469     4.2939962067     2.8654181120
   65      C      -5.4814950046     3.7974133696     3.0487673556
   66      C      -3.5138970599     2.6831908806    -2.6927203064
   67      C      -6.1005836895     0.3214923549     3.2501905421
   68      C      -7.6203917552     0.9487647872     1.0328015958
   69      C      -4.5792350069     1.7782527826     4.0912602432
   70      C      -5.5157680432    -1.7265309926     0.4800941488
   71      C      -1.7974341574     1.4369296295    -1.8596032689
   72      C      -7.4878077981     1.6215394318    -0.2184061295
   73      C      -4.5409362791     3.5233265736    -2.2324905166
   74      C      -3.8443752826    -0.4217340884     3.5012424866
   75      C      -2.0664271020     3.7091574034    -0.9991721332
   76      C      -1.9742222398    -0.6005819121     2.1894802931
   77      C      -1.9159075395     4.0748775639     1.2573026895
   78      C      -2.7056974110     0.4871009849    -2.4052894497
   79      C      -2.2671428552     2.7200038051    -2.0513828275
   80      C      -4.3415609852    -1.8338645598    -0.2910370270
   81      C      -5.3587385727    -1.4671276263     1.8304291587
   82      C      -3.0966912297     3.4904713217     3.3220264534
   83      C      -0.9907841187     1.1331134234    -0.7103424508
   84      C      -5.4201271508     4.4976120407    -0.4149082654
   85      C      -5.6961247115     2.5321544931     3.6578544302
   86      C      -4.1374741286     4.9861798837     1.6148987913
   87      C      -4.0926821832    -1.3431334724     2.4657784079
   88      C      -2.3048686958     1.3978482830     3.5326823168
   89      O      11.0889857961     3.2798714626    -2.8410293647
   90      C      12.1661931694     3.4790456076    -3.7946162433
   91      H      12.2400741619     2.6386408225    -4.4960685909
   92      H      13.1129140651     3.4820503673    -3.2402386490
   93      H      12.1060656133     4.4091268955    -4.3737461725
   94      O       9.5189124599     3.4800778234    -4.5489813933
   95      C       9.7815132624     3.2623567990    -3.4014665245
   96      C       8.8064757169     2.8817277295    -2.3171836757
   97      H       9.1282413377     1.9447540958    -1.8453804380
   98      H       7.8680675451     2.7382030972    -2.8667587689
   99      C       8.5635779052     3.9348106619    -1.2651855814
  100      H       9.5356268718     4.2298565723    -0.8513514150
  101      H       8.0467936831     4.8258406449    -1.6440914237
  102      C       7.7755798222     3.4227402656     0.0063068214
  103      H       8.3598148671     2.5607922257     0.3527068629
  104      H       7.7345024370     4.2139059475     0.7644463285
  105      C       6.3134590137     2.8412986101    -0.1750363410
  106      C       5.3958922523     3.9541056829    -0.6356323216
  107      C       5.2407861784     4.2548966437    -1.9690080765
  108      H       5.5648620758     3.4892399728    -2.6669634296
  109      C       4.8803698443     5.5795421569    -2.3769079792
  110      H       4.9553634225     5.8732821127    -3.4190940478
  111      C       4.4145459826     6.4497125739    -1.4023113574
  112      H       4.0945923881     7.4401508822    -1.7136177256
  113      C       4.3773505271     6.1495725376    -0.0445696822
  114      H       4.1447762836     6.9491306248     0.6530097659
  115      C       4.8565378311     4.8514427220     0.3384831985
  116      H       4.9638645268     4.5747871719     1.3827765898
  117      C       2.0894170857    -0.0924657644     1.6908868584
  118      C       1.9096783557    -0.3646477862    -0.7638475338
  119      C       3.2747098170    -4.6595393335    -0.8204311531
  120      C       6.6845399570    -1.5115078053     3.2466189958
  121      C       6.5596571918    -3.9746606366    -1.7582327927
  122      C       2.2279937613     0.4356077779     0.3592634736
  123      C       7.6755627680    -3.4578634538     1.6079422498
  124      C       1.7086854115    -3.5309380771     0.6489768112
  125      C       5.5711471008    -0.0638830402    -2.4642854761
  126      C       7.6240433388    -1.1815338952     2.2615197042
  127      C       6.0790748365     1.4500745611    -0.6831580812
  128      C       6.8361760440    -0.4706601374    -2.0361965063
  129      C       8.3233956677    -1.5758273782     0.1114748281
  130      C       7.4612382867    -4.2571345650     0.5372804416
  131      C       3.6353622790     1.0024103237    -1.2609432199
  132      C       5.3382451890    -5.3599601762    -0.1323828904
  133      C       5.7101235404     1.7996527084     0.7095885073
  134      C       6.4324149263     0.9412685579     1.8093820352
  135      C       5.4218471549    -4.7476503075    -1.4042733480
  136      C       3.9949217701    -3.7151530674     3.2726683232
  137      C       3.5378459079    -4.9005759625     1.5123503928
  138      C       2.4414234794    -4.0492639635     1.7177664066
  139      C       1.2460595536    -2.2042106561     0.6673524988
  140      C       5.4495730908     0.5801684946     2.7552137700
  141      C       5.0274099073     0.9830681818    -1.6548344257
  142      C       1.4212390963    -1.6423858851    -0.6258640548
  143      C       8.1276561684    -2.1062892824     1.4126071106
  144      C       2.8039228931     0.0164747533    -1.7708889019
  145      C       7.2479874072    -1.8251657580    -2.0820541655
  146      C       4.4896527018    -1.4031390578     3.7814349935
  147      C       2.1755862088    -3.8312094215    -0.6477034753
  148      C       7.1569299586     0.3471790895    -0.8831878657
  149      C       2.2739232004    -1.9657828126     2.9452288095
  150      C       7.9987674461    -2.3578250629    -1.0320273096
  151      C       4.6848284678    -1.0699650453    -2.8931855574
  152      C       5.8733340541    -4.7470330819     2.1410973236
  153      C       6.7639676228    -3.7781610435     2.5842381810
  154      C       5.0392569703    -2.4224765437    -2.8858997242
  155      C       5.5963758101    -0.6116712507     3.4645317406
  156      C       7.4578045496    -0.0310780435     1.4979190243
  157      C       4.8700069296    -2.7414921530     3.7893504182
  158      C       4.2881375310     1.5525106186     1.0513275549
  159      C       2.8435217250    -2.3103121049    -2.3189298210
  160      C       7.7601366535    -0.2828049528     0.1651058858
  161      C       6.3698802232    -2.8263335378    -2.5323416846
  162      C       3.2045883088    -0.9940217057     3.4173546478
  163      C       4.1142824542    -4.3110518408    -1.8140212367
  164      C       1.6197992500    -1.4145044551     1.8404120690
  165      C       3.9907085249    -5.2751116900     0.2338010434
  166      C       3.3074473871    -1.0421050493    -2.5451019770
  167      C       3.9031498723    -3.1646483321    -2.5755906874
  168      C       3.2730853243     1.3060160560     0.0950475497
  169      C       4.1979684886     0.9380851102     2.2949620825
  170      C       4.5386058638    -4.6929558614     2.4828257425
  171      C       1.9412578662    -2.6711341113    -1.3905369038
  172      C       7.5893837116    -3.7186793340    -0.7983938129
  173      C       6.2503235714    -2.8229012771     3.4524861681
  174      C       6.3645496148    -5.1462343298     0.8496769286
  175      C       3.0671473833     0.1537726220     2.6665835952
  176      C       2.6754021271    -3.3376456045     2.8145951552
 ----------------------------------------------------------------

    9   -5804.2459683447      9.65E-06 Convergence criterion met
 Total energy in the final basis set = -5804.2459683447

                    Orbital Energies (a.u.)
 --------------------------------------------------------------

 Alpha MOs
 -- Occupied --
-19.206 -19.187 -19.148 -19.133 -10.323 -10.319 -10.249 -10.249
-10.242 -10.242 -10.240 -10.240 -10.239 -10.237 -10.232 -10.231
-10.229 -10.229 -10.228 -10.227 -10.224 -10.223 -10.223 -10.222
-10.222 -10.221 -10.221 -10.221 -10.219 -10.219 -10.219 -10.219
-10.219 -10.218 -10.218 -10.218 -10.218 -10.217 -10.217 -10.217
-10.217 -10.217 -10.217 -10.216 -10.216 -10.216 -10.216 -10.216
-10.216 -10.216 -10.216 -10.216 -10.216 -10.215 -10.215 -10.215
-10.215 -10.215 -10.215 -10.215 -10.214 -10.214 -10.214 -10.214
-10.214 -10.214 -10.214 -10.214 -10.214 -10.213 -10.213 -10.213
-10.213 -10.213 -10.213 -10.213 -10.213 -10.213 -10.213 -10.213
-10.212 -10.212 -10.212 -10.212 -10.212 -10.212 -10.212 -10.212
-10.212 -10.211 -10.211 -10.211 -10.211 -10.211 -10.211 -10.210
-10.210 -10.210 -10.210 -10.210 -10.210 -10.210 -10.209 -10.209
-10.209 -10.209 -10.209 -10.209 -10.209 -10.209 -10.209 -10.208
-10.208 -10.208 -10.208 -10.208 -10.208 -10.208 -10.208 -10.208
-10.208 -10.208 -10.207 -10.206 -10.206 -10.206 -10.206 -10.205
-10.205 -10.205 -10.205 -10.205 -10.205 -10.205 -10.204 -10.203
-10.203 -10.202 -10.202 -10.201 -10.201 -10.200 -10.199 -10.198
-10.197 -10.196 -10.194 -10.193  -1.107  -1.086  -1.015  -1.000
 -0.984  -0.981  -0.967  -0.964  -0.963  -0.962  -0.959  -0.958
 -0.937  -0.932  -0.926  -0.926  -0.925  -0.923  -0.923  -0.921
 -0.919  -0.918  -0.900  -0.890  -0.889  -0.888  -0.885  -0.884
 -0.877  -0.874  -0.854  -0.852  -0.845  -0.840  -0.839  -0.836
 -0.835  -0.834  -0.822  -0.817  -0.811  -0.809  -0.799  -0.797
 -0.797  -0.794  -0.793  -0.791  -0.789  -0.787  -0.784  -0.783
 -0.772  -0.771  -0.769  -0.768  -0.766  -0.765  -0.762  -0.762
 -0.750  -0.746  -0.745  -0.738  -0.733  -0.731  -0.719  -0.717
 -0.714  -0.712  -0.712  -0.711  -0.710  -0.709  -0.709  -0.708
 -0.707  -0.706  -0.703  -0.702  -0.701  -0.697  -0.673  -0.672
 -0.661  -0.659  -0.655  -0.654  -0.648  -0.647  -0.634  -0.631
 -0.627  -0.625  -0.625  -0.624  -0.621  -0.619  -0.618  -0.617
 -0.615  -0.614  -0.613  -0.612  -0.611  -0.611  -0.610  -0.609
 -0.603  -0.603  -0.603  -0.601  -0.582  -0.568  -0.563  -0.562
 -0.560  -0.559  -0.559  -0.558  -0.555  -0.554  -0.553  -0.551
 -0.537  -0.537  -0.533  -0.531  -0.529  -0.525  -0.524  -0.523
 -0.522  -0.520  -0.519  -0.518  -0.515  -0.514  -0.513  -0.510
 -0.506  -0.504  -0.503  -0.501  -0.491  -0.489  -0.487  -0.486
 -0.485  -0.482  -0.481  -0.481  -0.478  -0.478  -0.477  -0.475
 -0.472  -0.471  -0.470  -0.469  -0.468  -0.467  -0.466  -0.465
 -0.464  -0.463  -0.462  -0.462  -0.461  -0.460  -0.459  -0.457
 -0.456  -0.455  -0.453  -0.452  -0.451  -0.447  -0.444  -0.443
 -0.442  -0.442  -0.440  -0.439  -0.437  -0.435  -0.434  -0.432
 -0.432  -0.429  -0.428  -0.428  -0.426  -0.426  -0.425  -0.424
 -0.423  -0.421  -0.421  -0.420  -0.419  -0.418  -0.418  -0.418
 -0.417  -0.416  -0.415  -0.415  -0.415  -0.414  -0.413  -0.411
 -0.411  -0.411  -0.408  -0.405  -0.402  -0.400  -0.399  -0.398
 -0.392  -0.392  -0.390  -0.390  -0.388  -0.386  -0.385  -0.382
 -0.379  -0.379  -0.372  -0.370  -0.369  -0.367  -0.365  -0.364
 -0.363  -0.363  -0.362  -0.362  -0.360  -0.359  -0.359  -0.358
 -0.356  -0.356  -0.355  -0.355  -0.354  -0.353  -0.352  -0.352
 -0.350  -0.350  -0.349  -0.347  -0.345  -0.345  -0.345  -0.344
 -0.342  -0.341  -0.341  -0.339  -0.337  -0.336  -0.336  -0.333
 -0.332  -0.331  -0.331  -0.330  -0.328  -0.326  -0.323  -0.322
 -0.314  -0.311  -0.299  -0.299  -0.287  -0.287  -0.277  -0.272
 -0.271  -0.269  -0.268  -0.267  -0.265  -0.265  -0.264  -0.263
 -0.261  -0.260  -0.258  -0.256  -0.256  -0.253  -0.252  -0.252
 -0.250  -0.247  -0.245  -0.241  -0.222  -0.220  -0.213  -0.210
 -0.209  -0.206  -0.203  -0.202  -0.199  -0.197

          Ground-State Mulliken Net Atomic Charges

     Atom                 Charge (a.u.)
  ----------------------------------------
      1 O                    -0.436902
      2 C                    -0.092706
      3 H                     0.126433
      4 H                     0.127805
      5 H                     0.130505
      6 O                    -0.491183
      7 C                     0.595120
      8 C                    -0.258816
      9 H                     0.132086
     10 H                     0.136706
     11 C                    -0.192075
     12 H                     0.099862
     13 H                     0.128072
     14 C                    -0.172826
     15 H                     0.109628
     16 H                     0.115033
     17 C                    -0.011737
     18 C                     0.117159
     19 C                    -0.104495
     20 H                     0.096475
     21 C                    -0.091288
     22 H                     0.093435
     23 C                    -0.089214
     24 H                     0.090876
     25 C                    -0.093196
     26 H                     0.099399
     27 C                    -0.114204
     28 H                     0.092353
     29 C                    -0.008891
     30 C                     0.030627
     31 C                    -0.018836
     32 C                    -0.013393
     33 C                     0.002159
     34 C                     0.005738
     35 C                    -0.033942
     36 C                     0.028553
     37 C                     0.009009
     38 C                    -0.027137
     39 C                    -0.090763
     40 C                     0.020739
     41 C                     0.036942
     42 C                     0.012039
     43 C                    -0.011162
     44 C                     0.030148
     45 C                    -0.082963
     46 C                     0.028315
     47 C                    -0.032266
     48 C                     0.023710
     49 C                     0.007474
     50 C                    -0.029348
     51 C                     0.000448
     52 C                    -0.003364
     53 C                     0.014305
     54 C                    -0.012033
     55 C                     0.031796
     56 C                     0.001646
     57 C                    -0.033242
     58 C                     0.000626
     59 C                     0.006297
     60 C                     0.054807
     61 C                    -0.008223
     62 C                    -0.022496
     63 C                    -0.032720
     64 C                    -0.005360
     65 C                    -0.004793
     66 C                    -0.033077
     67 C                    -0.003147
     68 C                    -0.024547
     69 C                     0.001283
     70 C                     0.044794
     71 C                     0.021132
     72 C                    -0.021612
     73 C                     0.033735
     74 C                    -0.009749
     75 C                     0.006188
     76 C                    -0.019781
     77 C                     0.015953
     78 C                     0.008525
     79 C                     0.007126
     80 C                    -0.022036
     81 C                     0.025897
     82 C                    -0.016963
     83 C                    -0.036239
     84 C                     0.009207
     85 C                     0.014311
     86 C                    -0.026502
     87 C                    -0.006960
     88 C                     0.008023
     89 O                    -0.487463
     90 C                    -0.084822
     91 H                     0.122524
     92 H                     0.118569
     93 H                     0.127511
     94 O                    -0.442218
     95 C                     0.591276
     96 C                    -0.240084
     97 H                     0.132133
     98 H                     0.128165
     99 C                    -0.194534
    100 H                     0.124086
    101 H                     0.122650
    102 C                    -0.180294
    103 H                     0.105695
    104 H                     0.114651
    105 C                     0.001213
    106 C                     0.102178
    107 C                    -0.126000
    108 H                     0.090845
    109 C                    -0.086019
    110 H                     0.100582
    111 C                    -0.083495
    112 H                     0.085042
    113 C                    -0.082414
    114 H                     0.098899
    115 C                    -0.125330
    116 H                     0.087537
    117 C                    -0.009732
    118 C                     0.049436
    119 C                     0.014803
    120 C                    -0.002973
    121 C                    -0.015060
    122 C                    -0.002281
    123 C                     0.036008
    124 C                    -0.034766
    125 C                    -0.002132
    126 C                     0.010147
    127 C                    -0.075686
    128 C                    -0.002172
    129 C                    -0.032267
    130 C                    -0.007389
    131 C                    -0.012527
    132 C                     0.002845
    133 C                    -0.097945
    134 C                    -0.006228
    135 C                     0.000989
    136 C                    -0.024855
    137 C                    -0.027988
    138 C                     0.066915
    139 C                    -0.010633
    140 C                    -0.000173
    141 C                     0.026799
    142 C                     0.007682
    143 C                    -0.003975
    144 C                    -0.029895
    145 C                     0.022730
    146 C                     0.020807
    147 C                     0.011725
    148 C                     0.009128
    149 C                    -0.037117
    150 C                    -0.018281
    151 C                    -0.008663
    152 C                     0.022084
    153 C                     0.005611
    154 C                     0.002670
    155 C                     0.000097
    156 C                    -0.006847
    157 C                    -0.011656
    158 C                     0.069425
    159 C                     0.026232
    160 C                     0.035242
    161 C                    -0.003621
    162 C                     0.002483
    163 C                     0.001950
    164 C                     0.020528
    165 C                    -0.008297
    166 C                    -0.003340
    167 C                    -0.011606
    168 C                    -0.012553
    169 C                     0.019502
    170 C                     0.026124
    171 C                    -0.011163
    172 C                    -0.002764
    173 C                    -0.021849
    174 C                    -0.046877
    175 C                    -0.014057
    176 C                    -0.007791
  ----------------------------------------
  Sum of atomic charges =     0.000000

                    Cartesian Multipole Moments
 -----------------------------------------------------------------
    Charge (ESU x 10^10)
                 0.0000
    Dipole Moment (Debye)
         X       0.4388      Y      -1.7496      Z      -0.4486
       Tot       1.8587
    Quadrupole Moments (Debye-Ang)
        XX    -783.6339     XY      56.6222     YY    -784.4295
        XZ      16.8971     YZ      12.8750     ZZ    -806.5423

 Total job time:  856.48s(wall), 7214.55s(cpu)
        *  Thank you very much for using Q-Chem.  Have a nice day.  *
