 Q-Chem 4.4, Q-Chem, Inc., Pleasanton, CA (2016)
 Q-Chem 4.4.2 for Intel X86 Linux

User input:
--------------------------------------------------------------
$comment
SP
$end

$rem
MEM_STATIC 5000
MEM_TOTAL 20000
JOBTYPE SP
EXCHANGE B3LYP
BASIS 6-31g(d,p)
$end

$molecule
0 1
O          11.112000      8.722000      7.522000
C          11.110000      9.069000      8.930000
H          10.087000      9.034000      9.326000
H          11.550000     10.071000      9.008000
H          11.654000      8.346000      9.551000
O           9.494000     10.142000      6.987000
C          10.338000      9.336000      6.649000
C          10.586000      8.851000      5.153000
H          11.483000      8.238000      5.306000
H          10.869000      9.724000      4.552000
C           9.399000      8.009000      4.619000
H           9.497000      7.076000      5.187000
H           8.438000      8.477000      4.866000
C           9.593000      7.790000      3.091000
H           9.776000      8.748000      2.589000
H          10.441000      7.100000      3.002000
C           8.424000      7.362000      2.293000
C           7.201000      8.261000      2.372000
C           7.079000      9.346000      1.436000
H           7.780000      9.499000      0.621000
C           5.967000     10.187000      1.531000
H           5.886000     11.047000      0.874000
C           4.968000     10.025000      2.555000
H           4.119000     10.701000      2.590000
C           5.102000      8.939000      3.439000
H           4.440000      8.731000      4.274000
C           6.184000      8.046000      3.273000
H           6.211000      7.128000      3.852000
C           5.470000      2.818000      1.553000
C           5.020000      4.081000     -0.473000
C           7.334000      1.456000     -3.150000
C          10.306000      2.153000      2.333000
C          10.223000      3.434000     -3.228000
C           5.345000      4.042000      0.883000
C          11.568000      1.954000     -0.178000
C           5.764000      0.860000     -1.430000
C           8.240000      6.407000     -1.384000
C          10.993000      3.270000      1.853000
C           8.555000      6.602000      0.987000
C           9.629000      6.244000     -1.167000
C          11.496000      4.418000     -0.063000
C          11.317000      2.058000     -1.585000
C           6.353000      5.913000      0.114000
C           9.523000      1.126000     -2.867000
C           8.284000      5.834000      2.225000
C           9.249000      4.741000      2.713000
C           9.413000      2.379000     -3.508000
C           8.318000     -0.311000      0.769000
C           8.010000     -0.140000     -1.528000
C           6.760000      0.003000     -0.863000
C           5.095000      1.668000     -0.531000
C           8.605000      3.554000      3.205000
C           7.532000      6.593000     -0.149000
C           4.823000      2.897000     -1.191000
C          11.647000      3.171000      0.585000
C           5.661000      5.305000     -0.962000
C          10.335000      5.346000     -2.022000
C           8.313000      1.207000      2.660000
C           6.064000      1.577000     -2.564000
C           9.856000      6.221000      0.234000
C           6.284000      0.686000      1.385000
C          11.321000      4.473000     -1.475000
C           7.513000      5.750000     -2.429000
C          10.247000      0.219000     -0.753000
C          10.883000      0.845000      0.353000
C           8.273000      4.852000     -3.240000
C           9.122000      2.288000      2.975000
C          10.389000      4.549000      1.964000
C           9.002000      0.332000      1.810000
C           7.037000      5.054000      2.332000
C           6.191000      3.986000     -2.871000
C          10.680000      5.231000      0.752000
C           9.661000      4.730000     -3.066000
C           6.949000      1.385000      2.426000
C           8.032000      2.536000     -3.664000
C           5.337000      1.569000      0.829000
C           8.274000      0.512000     -2.716000
C           6.241000      5.181000     -2.174000
C           7.438000      3.833000     -3.584000
C           6.062000      5.203000      1.281000
C           7.262000      3.780000      2.934000
C           8.970000     -0.368000     -0.501000
C           5.493000      2.856000     -2.420000
C          11.212000      3.307000     -2.210000
C          10.233000      0.957000      1.614000
C          10.528000      0.992000     -1.883000
C           6.428000      2.691000      2.557000
C           6.994000     -0.125000      0.495000
O          14.536000      0.376000     -1.617000
C          14.796000      0.778000     -0.261000
H          15.845000      1.077000     -0.149000
H          14.602000     -0.065000      0.413000
H          14.194000      1.660000     -0.009000
O          15.135000      2.433000     -2.485000
C          14.716000      1.275000     -2.631000
C          14.464000      0.632000     -3.949000
H          15.293000     -0.084000     -4.006000
H          14.581000      1.386000     -4.737000
C          13.001000      0.078000     -4.238000
H          12.606000     -0.451000     -3.362000
H          12.385000      0.973000     -4.388000
C          13.146000     -0.954000     -5.446000
H          13.546000     -0.422000     -6.319000
H          13.835000     -1.786000     -5.257000
C          11.762000     -1.549000     -5.876000
C          11.345000     -2.639000     -4.945000
C          10.573000     -2.329000     -3.790000
H          10.463000     -1.278000     -3.542000
C          10.157000     -3.440000     -2.963000
H           9.634000     -3.165000     -2.052000
C          10.457000     -4.765000     -3.349000
H          10.158000     -5.582000     -2.699000
C          11.350000     -5.041000     -4.398000
H          11.566000     -6.032000     -4.785000
C          11.721000     -3.986000     -5.224000
H          12.221000     -4.239000     -6.154000
C           8.363000     -3.593000     -9.621000
C           6.946000     -2.362000     -8.133000
C           5.828000      0.944000    -10.948000
C          12.042000     -0.655000    -11.257000
C           8.197000      3.194000     -9.552000
C           8.116000     -3.132000     -8.324000
C          10.989000      1.917000    -11.453000
C           6.087000     -1.422000    -11.396000
C           8.832000      0.695000     -6.421000
C          12.374000      0.279000    -10.269000
C          10.747000     -0.588000     -6.470000
C           9.805000      1.533000     -6.883000
C          11.388000      1.884000     -9.122000
C           9.856000      2.741000    -11.233000
C           8.557000     -1.692000     -6.675000
C           7.502000      2.288000    -11.651000
C          11.273000     -1.744000     -7.323000
C          12.119000     -1.481000     -8.551000
C           7.169000      2.682000    -10.372000
C           9.096000     -1.138000    -13.085000
C           7.182000      0.131000    -12.804000
C           6.905000     -1.210000    -12.508000
C           6.388000     -2.456000    -10.485000
C          11.713000     -2.322000     -9.574000
C           9.331000     -0.562000     -6.276000
C           6.102000     -2.034000     -9.166000
C          11.830000      1.566000    -10.437000
C           7.188000     -1.473000     -7.094000
C           9.473000      2.575000     -7.786000
C          10.760000     -2.481000    -11.852000
C           5.618000     -0.390000    -10.575000
C          10.966000      0.763000     -6.988000
C           8.371000     -3.033000    -11.771000
C          10.319000      2.767000     -8.900000
C           7.512000      0.920000     -6.885000
C           9.376000      1.215000    -12.870000
C          10.695000      0.952000    -12.436000
C           7.172000      1.969000     -7.726000
C          11.704000     -1.981000    -10.921000
C          12.310000     -0.079000     -8.903000
C          10.401000     -1.387000    -12.619000
C          10.424000     -2.853000     -7.752000
C           5.828000      0.231000     -8.214000
C          11.681000      0.918000     -8.166000
C           8.207000      2.862000     -8.180000
C           9.726000     -3.263000    -11.288000
C           6.137000      1.861000     -9.918000
C           7.524000     -3.278000    -10.708000
C           6.638000      1.202000    -12.049000
C           6.686000     -0.151000     -7.140000
C           6.112000      1.552000     -8.540000
C           9.078000     -2.800000     -7.424000
C          10.690000     -3.158000     -9.107000
C           8.551000      0.176000    -13.212000
C           5.563000     -0.738000     -9.213000
C           9.567000      3.146000     -9.931000
C          11.232000     -0.293000    -12.294000
C           8.853000      2.212000    -12.076000
C           9.706000     -3.649000     -9.997000
C           8.042000     -2.008000    -12.669000
$end

--------------------------------------------------------------

             Standard Nuclear Orientation (Angstroms)
    I     Atom           X                Y                Z
 ----------------------------------------------------------------
    1      O     -13.0958222135    -1.4298058998     2.2740978772
    2      C     -14.4998021049    -1.7217905785     2.0585464634
    3      H     -14.8756496051    -1.1540758642     1.1977278647
    4      H     -15.0220963538    -1.4598042260     2.9871259531
    5      H     -14.6829363375    -2.7674281911     1.7803202316
    6      O     -13.3626464133     0.7717385419     2.2235417927
    7      C     -12.6490989049    -0.1957579751     2.3996566492
    8      C     -11.0920913299    -0.1311097669     2.7256827535
    9      H     -10.8997927429    -1.1953653467     2.9105294850
   10      H     -10.9621121893     0.4075338852     3.6724601503
   11      C     -10.2752770438     0.3992393023     1.5196009624
   12      H     -10.3317039270    -0.4357170961     0.8108126868
   13      H     -10.7543197269     1.2790218392     1.0723261079
   14      C      -8.8177551390     0.6741582178     1.9891012147
   15      H      -8.8193040719     1.3000665937     2.8899304470
   16      H      -8.3780633744    -0.3151561983     2.1653202213
   17      C      -7.9627510063     1.5353875291     1.1442337657
   18      C      -8.5080913627     2.9218762275     0.8435279544
   19      C      -8.2001512384     3.9969112961     1.7477831623
   20      H      -7.5245092242     3.8796790150     2.5896854494
   21      C      -8.7275281141     5.2635109254     1.4823608383
   22      H      -8.5575678898     6.0741050054     2.1836886930
   23      C      -9.5957120194     5.5134157182     0.3613678405
   24      H      -9.9812776867     6.5142799888     0.1922175287
   25      C      -9.8568626440     4.4477727834    -0.5189806626
   26      H     -10.5225404972     4.4968849006    -1.3752481417
   27      C      -9.2437058774     3.1965875903    -0.2859497802
   28      H      -9.3199121976     2.4174199047    -1.0381361364
   29      C      -5.2946679163     1.1693688274    -3.6169651311
   30      C      -4.1243714666     2.9748181009    -2.4886459651
   31      C      -0.4304579976     0.6967197399    -1.7291585449
   32      C      -5.4627021750    -2.9613940803    -0.9065992354
   33      C      -1.1712291163    -0.1453428263     1.5885330900
   34      C      -5.2866978819     2.2353757794    -2.7079730207
   35      C      -3.1032484806    -3.0858388017     0.6279553500
   36      C      -1.7314772768     0.8441967850    -3.7451236628
   37      C      -4.2812902936     2.4035469377     1.5434282827
   38      C      -5.5371448102    -2.6072346667     0.4421362478
   39      C      -6.4484723865     1.4499964434     1.1523346482
   40      C      -4.3365570334     1.2364912945     2.3421182808
   41      C      -4.3690209547    -1.5905370237     2.1284878010
   42      C      -1.9234861811    -2.3418368658     0.9567227997
   43      C      -5.4483022707     2.9179830037    -0.5594857857
   44      C      -0.4311325171    -1.1655209704    -0.4992117647
   45      C      -7.1885795517     0.7387129111     0.0835848549
   46      C      -7.0622502348    -0.7829203195    -0.0972222663
   47      C      -0.4617404908    -0.1030933066     0.4299279509
   48      C      -3.0080707818    -2.4692422937    -3.3970022836
   49      C      -1.0782930693    -1.3265254162    -2.7883397184
   50      C      -1.7846609900    -0.5855301798    -3.7768458743
   51      C      -2.9327227371     1.4877667462    -3.9719563082
   52      C      -6.9635557419    -1.2142394267    -1.4646988566
   53      C      -5.4870041864     2.5801735124     0.7843880585
   54      C      -2.9421694007     2.6581362081    -3.1656244392
   55      C      -4.3456641195    -2.6811100600     1.2297003341
   56      C      -4.2432762170     3.4295061372    -1.1003742158
   57      C      -3.1300773273     0.4965695208     2.5231914365
   58      C      -5.3896132011    -2.2257587021    -3.0107362538
   59      C      -1.0577139226     1.4669272770    -2.7212610367
   60      C      -5.5502336404     0.5605759683     2.0505937274
   61      C      -4.1071432802    -0.6365206488    -4.3684918696
   62      C      -3.1585262527    -0.9285244365     2.4803910702
   63      C      -3.0819649372     2.8994558556     0.9368839442
   64      C      -1.8350993566    -2.9833932597    -1.2340848511
   65      C      -3.0774185615    -3.4548070264    -0.7300808294
   66      C      -1.9119495588     2.1052884063     1.1420352950
   67      C      -6.1422316644    -2.2641172986    -1.8469660589
   68      C      -6.2634662645    -1.4449548247     0.8089341676
   69      C      -4.1991020111    -2.9414704157    -2.8282921540
   70      C      -6.9682105362     1.1204685678    -1.3237381768
   71      C      -1.9173516787     2.9376682987    -0.9858640287
   72      C      -5.5048765505    -0.8090545812     1.8282091679
   73      C      -1.9487045493     0.9790029494     1.9797907130
   74      C      -5.3253779964    -1.0614388420    -3.7770058551
   75      C      -0.4570416516     1.0328647346    -0.3859907029
   76      C      -4.0738212010     0.7699766767    -4.2891892067
   77      C      -0.3278530691    -0.6980002564    -1.8147176513
   78      C      -3.0924899919     3.3733930237    -0.3980478083
   79      C      -1.1641136278     2.2099195366     0.0090234915
   80      C      -6.1540527613     2.2812693897    -1.5828049045
   81      C      -6.8884582741    -0.0227743016    -2.1738795288
   82      C      -1.8347099693    -2.5156646068    -2.5831703768
   83      C      -1.8117025381     2.5938758391    -2.3416479362
   84      C      -1.9660908808    -1.2910991334     1.8818098536
   85      C      -4.2686902604    -3.3734535502    -1.5043019550
   86      C      -1.1920631729    -2.3147804973    -0.1886894999
   87      C      -6.0785149722     0.0507349624    -3.3410102995
   88      C      -2.9106686552    -1.3143737668    -4.1177238049
   89      O      -0.9656084837    -5.6415902328     2.1340957370
   90      C      -2.3385639294    -6.0688662873     2.1532925445
   91      H      -2.5335549103    -6.6773479163     3.0444011936
   92      H      -2.5432063140    -6.6790068467     1.2653674395
   93      H      -3.0018844613    -5.1975955496     2.2220324414
   94      O      -1.1450642192    -4.5196377177     4.1471760118
   95      C      -0.4884438770    -4.8663574354     3.1539609477
   96      C       0.9649719634    -4.6035954421     2.9733632462
   97      H       1.3879214259    -5.6064394538     3.1096116967
   98      H       1.3087152288    -3.9514462793     3.7855769108
   99      C       1.4184759125    -3.7901343335     1.6836263765
  100      H       0.8793368577    -4.1396760916     0.7945866480
  101      H       1.1025627223    -2.7575571054     1.8758869400
  102      C       2.9752266388    -4.0844192493     1.4959123263
  103      H       3.5105214929    -3.7377089012     2.3894470786
  104      H       3.2301930109    -5.1450507691     1.3831341010
  105      C       3.5756250006    -3.3017270025     0.2788274262
  106      C       3.2515268401    -3.9932901994    -1.0039238074
  107      C       2.0551178773    -3.6677016731    -1.7029994151
  108      H       1.3365838269    -3.0443087385    -1.1802231077
  109      C       1.8325763481    -4.3355153782    -2.9662516160
  110      H       0.8781973012    -4.1216516842    -3.4379485051
  111      C       2.8099064128    -5.2103921479    -3.4897376067
  112      H       2.6096862283    -5.7213558768    -4.4268704391
  113      C       3.9020570507    -5.6396844844    -2.7171179888
  114      H       4.7192654754    -6.2529619973    -3.0839518515
  115      C       4.1481997343    -4.9738588865    -1.5216967022
  116      H       5.1079685833    -5.1512668504    -1.0460085997
  117      C       7.6935794506    -0.7709532019    -2.2497684524
  118      C       5.7422842888     0.4511901868    -2.9102279353
  119      C       6.6162557018     4.2462546920    -0.6881918486
  120      C       7.9063800350    -1.0422345269     2.7226055635
  121      C       4.4266886962     3.4131637301     1.9829938015
  122      C       6.3232300387    -0.7797530174    -2.5287022304
  123      C       6.8219540800     1.3293245295     3.7034913827
  124      C       8.1371342088     2.7953987593    -1.8913903481
  125      C       2.8734291465     0.3363939027    -0.1552903705
  126      C       6.6099071659    -1.0689385775     3.2490739799
  127      C       3.6027653182    -1.7861256543     0.3726248487
  128      C       2.9267977330     0.3118593924     1.2081489760
  129      C       4.8010483440     0.1926904145     3.2367431695
  130      C       6.1915820716     2.5560529219     3.3735920310
  131      C       4.2106005637    -0.8152273997    -1.8056391145
  132      C       6.6732313711     4.1123584989     1.5660589322
  133      C       4.9214373644    -2.5537765246     0.2611027618
  134      C       5.9152169625    -2.5608011825     1.4035657873
  135      C       5.3466620497     4.1309856154     1.1894518873
  136      C       9.6190951988     1.4217690816     0.9200845554
  137      C       8.6920267974     3.4523334601     0.3117503678
  138      C       9.0515751882     2.7362207104    -0.8373943073
  139      C       7.8347897336     1.6322645854    -2.6298920149
  140      C       7.1955399336    -2.4127415463     0.8961237377
  141      C       3.3594003528    -0.8290558405    -0.6608928653
  142      C       6.4617843298     1.6199443234    -2.9680419407
  143      C       6.1281431645     0.1549179131     3.7496813484
  144      C       4.4182681941     0.4433994396    -2.4915076404
  145      C       3.2170058621     1.4990851809     1.9276426654
  146      C       9.2366987344    -1.0153283859     0.8354507693
  147      C       6.9075227166     3.4590582236    -1.8099183064
  148      C       3.4316015889    -0.9433548942     1.5566545880
  149      C       9.3239438368     0.3281938637    -1.2153837577
  150      C       4.1438262892     1.4085832805     2.9889575583
  151      C       3.1199937005     1.5797250861    -0.7890525413
  152      C       8.3325181866     2.5632509046     2.5641565852
  153      C       8.1302500150     1.3084397454     3.1820744935
  154      C       3.3519451127     2.7547506438    -0.0899134414
  155      C       8.2210275038    -1.7200463895     1.5280411871
  156      C       5.5725909292    -1.7265580515     2.5492685409
  157      C       9.3814433584     0.1739661426     1.5272842162
  158      C       5.7859777096    -2.4630549817    -0.9132321961
  159      C       4.5438901613     2.8407524273    -1.9970040775
  160      C       4.4266704918    -0.9398140797     2.5224492563
  161      C       3.3749784812     2.7162559334     1.3498009821
  162      C       9.0644868051    -0.9499125642    -0.5662766728
  163      C       5.2898190888     4.2107307760    -0.2018031530
  164      C       8.4669893720     0.4056710694    -2.2956750739
  165      C       7.4989843014     4.2165828620     0.3864126377
  166      C       3.8143205420     1.6148288383    -1.9769161546
  167      C       4.2204940398     3.5505232693    -0.8465201356
  168      C       5.4148194559    -1.5875009754    -1.9220710002
  169      C       7.1346979411    -2.3530997729    -0.5025381624
  170      C       9.0884444849     2.6479776696     1.4246361568
  171      C       5.8693993676     2.8024694525    -2.4957492607
  172      C       4.8414376969     2.5416961501     3.0276815651
  173      C       8.6148236289     0.1241709364     2.7116982603
  174      C       7.1408925970     3.2539953379     2.5937299211
  175      C       8.1083083886    -1.6290421022    -1.2300408676
  176      C       9.6178878679     1.5012486399    -0.5062932144
 ----------------------------------------------------------------

    9   -5804.2563282366      8.07E-06 Convergence criterion met
 Total energy in the final basis set = -5804.2563282366

                    Orbital Energies (a.u.)
 --------------------------------------------------------------

 Alpha MOs
 -- Occupied --
-19.196 -19.191 -19.131 -19.125 -10.314 -10.314 -10.253 -10.243
-10.241 -10.237 -10.237 -10.235 -10.234 -10.232 -10.232 -10.232
-10.231 -10.230 -10.228 -10.227 -10.227 -10.226 -10.226 -10.225
-10.223 -10.223 -10.222 -10.222 -10.222 -10.222 -10.222 -10.222
-10.222 -10.221 -10.221 -10.220 -10.220 -10.220 -10.220 -10.220
-10.220 -10.220 -10.220 -10.219 -10.219 -10.219 -10.219 -10.218
-10.218 -10.218 -10.218 -10.218 -10.218 -10.218 -10.217 -10.217
-10.217 -10.217 -10.217 -10.217 -10.217 -10.217 -10.217 -10.216
-10.216 -10.216 -10.216 -10.216 -10.216 -10.216 -10.215 -10.215
-10.215 -10.215 -10.215 -10.215 -10.215 -10.214 -10.214 -10.214
-10.214 -10.214 -10.214 -10.214 -10.213 -10.213 -10.213 -10.213
-10.213 -10.213 -10.213 -10.213 -10.213 -10.212 -10.212 -10.212
-10.212 -10.212 -10.211 -10.211 -10.211 -10.211 -10.211 -10.211
-10.211 -10.211 -10.210 -10.210 -10.210 -10.210 -10.209 -10.209
-10.209 -10.209 -10.209 -10.208 -10.208 -10.208 -10.208 -10.208
-10.207 -10.207 -10.207 -10.207 -10.207 -10.206 -10.206 -10.206
-10.206 -10.205 -10.205 -10.205 -10.204 -10.204 -10.204 -10.204
-10.203 -10.203 -10.203 -10.202 -10.202 -10.201 -10.200 -10.199
-10.197 -10.197 -10.196 -10.196  -1.106  -1.086  -1.005  -0.998
 -0.986  -0.984  -0.969  -0.966  -0.965  -0.964  -0.964  -0.962
 -0.937  -0.934  -0.929  -0.927  -0.927  -0.926  -0.924  -0.924
 -0.923  -0.921  -0.899  -0.892  -0.892  -0.891  -0.889  -0.885
 -0.876  -0.873  -0.852  -0.846  -0.845  -0.843  -0.842  -0.840
 -0.839  -0.838  -0.828  -0.818  -0.805  -0.800  -0.800  -0.799
 -0.798  -0.796  -0.795  -0.795  -0.795  -0.790  -0.785  -0.784
 -0.776  -0.773  -0.772  -0.771  -0.768  -0.765  -0.764  -0.761
 -0.750  -0.748  -0.745  -0.739  -0.738  -0.730  -0.718  -0.717
 -0.717  -0.715  -0.715  -0.714  -0.712  -0.712  -0.711  -0.711
 -0.710  -0.709  -0.708  -0.706  -0.702  -0.698  -0.676  -0.673
 -0.662  -0.661  -0.659  -0.658  -0.650  -0.647  -0.633  -0.632
 -0.627  -0.627  -0.626  -0.626  -0.623  -0.622  -0.621  -0.620
 -0.618  -0.616  -0.615  -0.614  -0.613  -0.612  -0.611  -0.607
 -0.606  -0.605  -0.604  -0.602  -0.568  -0.567  -0.565  -0.565
 -0.563  -0.561  -0.560  -0.558  -0.558  -0.556  -0.554  -0.554
 -0.540  -0.535  -0.535  -0.532  -0.531  -0.529  -0.528  -0.526
 -0.524  -0.521  -0.521  -0.520  -0.517  -0.515  -0.514  -0.513
 -0.507  -0.504  -0.500  -0.495  -0.493  -0.491  -0.487  -0.487
 -0.485  -0.484  -0.483  -0.482  -0.481  -0.479  -0.478  -0.475
 -0.475  -0.473  -0.472  -0.470  -0.469  -0.468  -0.468  -0.466
 -0.465  -0.465  -0.464  -0.464  -0.462  -0.461  -0.460  -0.458
 -0.457  -0.456  -0.453  -0.452  -0.450  -0.448  -0.447  -0.444
 -0.444  -0.443  -0.441  -0.441  -0.436  -0.435  -0.435  -0.433
 -0.431  -0.431  -0.429  -0.428  -0.427  -0.426  -0.426  -0.424
 -0.423  -0.423  -0.422  -0.422  -0.421  -0.421  -0.420  -0.418
 -0.418  -0.417  -0.416  -0.416  -0.416  -0.415  -0.414  -0.413
 -0.412  -0.411  -0.411  -0.407  -0.403  -0.400  -0.399  -0.398
 -0.394  -0.393  -0.392  -0.390  -0.390  -0.387  -0.387  -0.384
 -0.382  -0.379  -0.376  -0.371  -0.369  -0.368  -0.368  -0.366
 -0.365  -0.364  -0.363  -0.363  -0.361  -0.361  -0.360  -0.358
 -0.358  -0.356  -0.356  -0.353  -0.353  -0.352  -0.352  -0.351
 -0.351  -0.350  -0.349  -0.347  -0.346  -0.346  -0.345  -0.344
 -0.343  -0.342  -0.341  -0.338  -0.338  -0.336  -0.335  -0.335
 -0.334  -0.332  -0.330  -0.330  -0.329  -0.329  -0.327  -0.325
 -0.306  -0.305  -0.299  -0.295  -0.292  -0.284  -0.273  -0.272
 -0.270  -0.270  -0.268  -0.266  -0.265  -0.264  -0.263  -0.263
 -0.262  -0.261  -0.260  -0.260  -0.256  -0.255  -0.254  -0.252
 -0.251  -0.248  -0.246  -0.242  -0.228  -0.218  -0.214  -0.213
 -0.210  -0.210  -0.209  -0.205  -0.202  -0.196

          Ground-State Mulliken Net Atomic Charges

     Atom                 Charge (a.u.)
  ----------------------------------------
      1 O                    -0.439184
      2 C                    -0.086021
      3 H                     0.135925
      4 H                     0.133065
      5 H                     0.127052
      6 O                    -0.474447
      7 C                     0.554222
      8 C                    -0.252566
      9 H                     0.123035
     10 H                     0.130290
     11 C                    -0.191572
     12 H                     0.110375
     13 H                     0.136235
     14 C                    -0.161872
     15 H                     0.106548
     16 H                     0.108728
     17 C                     0.006321
     18 C                     0.080976
     19 C                    -0.099550
     20 H                     0.096237
     21 C                    -0.095608
     22 H                     0.091323
     23 C                    -0.084716
     24 H                     0.096724
     25 C                    -0.088431
     26 H                     0.096901
     27 C                    -0.105108
     28 H                     0.091693
     29 C                    -0.021033
     30 C                     0.013415
     31 C                     0.028758
     32 C                     0.018510
     33 C                    -0.039647
     34 C                     0.007085
     35 C                    -0.019502
     36 C                    -0.011318
     37 C                     0.000329
     38 C                    -0.031380
     39 C                    -0.093014
     40 C                     0.003098
     41 C                    -0.002770
     42 C                     0.015416
     43 C                     0.046550
     44 C                    -0.036871
     45 C                    -0.059176
     46 C                    -0.012938
     47 C                     0.032235
     48 C                     0.012697
     49 C                     0.008659
     50 C                     0.010547
     51 C                     0.026116
     52 C                    -0.012169
     53 C                     0.020740
     54 C                    -0.033096
     55 C                    -0.012035
     56 C                    -0.042458
     57 C                    -0.008539
     58 C                    -0.019354
     59 C                     0.010430
     60 C                     0.011165
     61 C                    -0.015831
     62 C                    -0.000810
     63 C                    -0.036946
     64 C                    -0.009331
     65 C                    -0.021533
     66 C                     0.023259
     67 C                     0.027553
     68 C                     0.022213
     69 C                    -0.002523
     70 C                     0.000223
     71 C                     0.023496
     72 C                     0.028127
     73 C                     0.023946
     74 C                     0.002080
     75 C                    -0.006999
     76 C                    -0.004780
     77 C                    -0.006145
     78 C                     0.031179
     79 C                    -0.034472
     80 C                     0.001468
     81 C                     0.016407
     82 C                    -0.030989
     83 C                    -0.009465
     84 C                     0.017350
     85 C                     0.007389
     86 C                     0.021318
     87 C                    -0.000508
     88 C                     0.013726
     89 O                    -0.463305
     90 C                    -0.084449
     91 H                     0.123858
     92 H                     0.122250
     93 H                     0.128392
     94 O                    -0.489393
     95 C                     0.586142
     96 C                    -0.246947
     97 H                     0.131671
     98 H                     0.135164
     99 C                    -0.200289
    100 H                     0.129518
    101 H                     0.121549
    102 C                    -0.178346
    103 H                     0.107278
    104 H                     0.117756
    105 C                     0.001038
    106 C                     0.081820
    107 C                    -0.097045
    108 H                     0.092629
    109 C                    -0.104621
    110 H                     0.093871
    111 C                    -0.091370
    112 H                     0.088210
    113 C                    -0.086582
    114 H                     0.094001
    115 C                    -0.105299
    116 H                     0.088968
    117 C                    -0.022762
    118 C                     0.014261
    119 C                    -0.012740
    120 C                     0.006794
    121 C                    -0.018765
    122 C                     0.021598
    123 C                    -0.004223
    124 C                     0.006882
    125 C                     0.006687
    126 C                    -0.020235
    127 C                    -0.066483
    128 C                     0.002843
    129 C                    -0.023266
    130 C                    -0.013810
    131 C                    -0.020586
    132 C                    -0.018342
    133 C                    -0.092288
    134 C                    -0.009635
    135 C                     0.034093
    136 C                    -0.005156
    137 C                     0.018616
    138 C                     0.001964
    139 C                    -0.017258
    140 C                     0.044544
    141 C                     0.045660
    142 C                    -0.001840
    143 C                    -0.003375
    144 C                    -0.021781
    145 C                     0.013056
    146 C                    -0.039916
    147 C                     0.004627
    148 C                     0.004237
    149 C                     0.006265
    150 C                     0.001512
    151 C                     0.018341
    152 C                     0.005116
    153 C                    -0.000051
    154 C                     0.008659
    155 C                    -0.015926
    156 C                    -0.032371
    157 C                     0.020957
    158 C                     0.015050
    159 C                    -0.015856
    160 C                     0.058541
    161 C                    -0.030405
    162 C                     0.008693
    163 C                     0.006602
    164 C                     0.000052
    165 C                    -0.020128
    166 C                    -0.016816
    167 C                    -0.017725
    168 C                     0.024412
    169 C                    -0.004991
    170 C                    -0.026164
    171 C                     0.014459
    172 C                     0.005940
    173 C                     0.021871
    174 C                     0.017524
    175 C                     0.004486
    176 C                    -0.004352
  ----------------------------------------
  Sum of atomic charges =     0.000000

                    Cartesian Multipole Moments
 -----------------------------------------------------------------
    Charge (ESU x 10^10)
                 0.0000
    Dipole Moment (Debye)
         X      -3.9488      Y      -2.9010      Z      -1.4646
       Tot       5.1141
    Quadrupole Moments (Debye-Ang)
        XX    -783.8120     XY       8.2014     YY    -785.9192
        XZ       0.1245     YZ       6.8480     ZZ    -817.9125

 Total job time:  858.52s(wall), 7340.91s(cpu)
        *  Thank you very much for using Q-Chem.  Have a nice day.  *
