 Q-Chem 4.4, Q-Chem, Inc., Pleasanton, CA (2016)
 Q-Chem 4.4.2 for Intel X86 Linux

User input:
--------------------------------------------------------------
$comment
SP
$end

$rem
MEM_STATIC 5000
MEM_TOTAL 20000
JOBTYPE SP
EXCHANGE B3LYP
BASIS 6-31g(d,p)
$end

$molecule
0 1
O          11.112000      8.722000      7.522000
C          11.110000      9.069000      8.930000
H          10.087000      9.034000      9.326000
H          11.550000     10.071000      9.008000
H          11.654000      8.346000      9.551000
O           9.494000     10.142000      6.987000
C          10.338000      9.336000      6.649000
C          10.586000      8.851000      5.153000
H          11.483000      8.238000      5.306000
H          10.869000      9.724000      4.552000
C           9.399000      8.009000      4.619000
H           9.497000      7.076000      5.187000
H           8.438000      8.477000      4.866000
C           9.593000      7.790000      3.091000
H           9.776000      8.748000      2.589000
H          10.441000      7.100000      3.002000
C           8.424000      7.362000      2.293000
C           7.201000      8.261000      2.372000
C           7.079000      9.346000      1.436000
H           7.780000      9.499000      0.621000
C           5.967000     10.187000      1.531000
H           5.886000     11.047000      0.874000
C           4.968000     10.025000      2.555000
H           4.119000     10.701000      2.590000
C           5.102000      8.939000      3.439000
H           4.440000      8.731000      4.274000
C           6.184000      8.046000      3.273000
H           6.211000      7.128000      3.852000
C           5.470000      2.818000      1.553000
C           5.020000      4.081000     -0.473000
C           7.334000      1.456000     -3.150000
C          10.306000      2.153000      2.333000
C          10.223000      3.434000     -3.228000
C           5.345000      4.042000      0.883000
C          11.568000      1.954000     -0.178000
C           5.764000      0.860000     -1.430000
C           8.240000      6.407000     -1.384000
C          10.993000      3.270000      1.853000
C           8.555000      6.602000      0.987000
C           9.629000      6.244000     -1.167000
C          11.496000      4.418000     -0.063000
C          11.317000      2.058000     -1.585000
C           6.353000      5.913000      0.114000
C           9.523000      1.126000     -2.867000
C           8.284000      5.834000      2.225000
C           9.249000      4.741000      2.713000
C           9.413000      2.379000     -3.508000
C           8.318000     -0.311000      0.769000
C           8.010000     -0.140000     -1.528000
C           6.760000      0.003000     -0.863000
C           5.095000      1.668000     -0.531000
C           8.605000      3.554000      3.205000
C           7.532000      6.593000     -0.149000
C           4.823000      2.897000     -1.191000
C          11.647000      3.171000      0.585000
C           5.661000      5.305000     -0.962000
C          10.335000      5.346000     -2.022000
C           8.313000      1.207000      2.660000
C           6.064000      1.577000     -2.564000
C           9.856000      6.221000      0.234000
C           6.284000      0.686000      1.385000
C          11.321000      4.473000     -1.475000
C           7.513000      5.750000     -2.429000
C          10.247000      0.219000     -0.753000
C          10.883000      0.845000      0.353000
C           8.273000      4.852000     -3.240000
C           9.122000      2.288000      2.975000
C          10.389000      4.549000      1.964000
C           9.002000      0.332000      1.810000
C           7.037000      5.054000      2.332000
C           6.191000      3.986000     -2.871000
C          10.680000      5.231000      0.752000
C           9.661000      4.730000     -3.066000
C           6.949000      1.385000      2.426000
C           8.032000      2.536000     -3.664000
C           5.337000      1.569000      0.829000
C           8.274000      0.512000     -2.716000
C           6.241000      5.181000     -2.174000
C           7.438000      3.833000     -3.584000
C           6.062000      5.203000      1.281000
C           7.262000      3.780000      2.934000
C           8.970000     -0.368000     -0.501000
C           5.493000      2.856000     -2.420000
C          11.212000      3.307000     -2.210000
C          10.233000      0.957000      1.614000
C          10.528000      0.992000     -1.883000
C           6.428000      2.691000      2.557000
C           6.994000     -0.125000      0.495000
O          22.464000      6.049000      5.027000
C          22.558000      6.384000      6.432000
H          22.028000      5.746000      7.150000
H          22.053000      7.345000      6.591000
H          23.603000      6.478000      6.749000
O          23.280000      3.923000      5.543000
C          22.870000      4.738000      4.715000
C          22.803000      4.416000      3.284000
H          23.404000      3.511000      3.136000
H          23.270000      5.132000      2.596000
C          21.356000      4.337000      2.763000
H          20.809000      5.287000      2.791000
H          21.275000      4.115000      1.691000
C          20.626000      3.172000      3.417000
H          21.050000      2.249000      3.002000
H          20.796000      3.225000      4.500000
C          19.128000      3.095000      3.115000
C          18.670000      2.602000      1.713000
C          18.574000      1.278000      1.445000
H          18.618000      0.604000      2.295000
C          18.582000      0.871000      0.113000
H          18.655000     -0.162000     -0.213000
C          18.539000      1.814000     -0.916000
H          18.511000      1.539000     -1.966000
C          18.452000      3.154000     -0.622000
H          18.416000      3.967000     -1.341000
C          18.540000      3.573000      0.714000
H          18.825000      4.586000      0.982000
C          13.925000      5.136000      3.589000
C          13.603000      2.730000      3.777000
C          12.740000      2.817000      8.410000
C          17.460000      6.911000      6.886000
C          16.075000      2.014000      9.307000
C          14.271000      3.819000      3.246000
C          17.346000      5.361000      9.196000
C          11.986000      4.264000      6.526000
C          16.976000      1.158000      5.569000
C          18.478000      5.930000      7.091000
C          18.233000      2.700000      4.364000
C          17.917000      1.632000      6.452000
C          18.714000      3.803000      7.930000
C          16.719000      4.287000      9.868000
C          15.831000      2.211000      3.694000
C          14.305000      3.636000      9.884000
C          18.104000      4.063000      3.733000
C          18.317000      5.204000      4.728000
C          14.680000      2.354000      9.468000
C          14.007000      6.970000      7.595000
C          13.006000      5.196000      8.536000
C          12.451000      5.367000      7.285000
C          12.247000      4.269000      5.130000
C          17.292000      6.133000      4.567000
C          17.024000      1.902000      4.450000
C          12.636000      2.973000      4.843000
C          18.430000      5.132000      8.279000
C          14.587000      1.741000      4.073000
C          17.666000      1.586000      7.766000
C          15.503000      7.388000      5.738000
C          12.192000      3.001000      7.060000
C          18.666000      2.613000      5.794000
C          13.309000      6.457000      5.324000
C          18.055000      2.708000      8.548000
C          15.712000      0.694000      6.014000
C          15.159000      5.892000      9.483000
C          16.372000      6.347000      8.969000
C          15.423000      0.698000      7.350000
C          16.826000      7.012000      5.613000
C          18.892000      5.050000      6.035000
C          15.268000      7.412000      7.109000
C          16.664000      4.433000      3.186000
C          13.502000      1.185000      6.240000
C          18.942000      3.767000      6.569000
C          16.419000      1.190000      8.256000
C          14.524000      6.891000      4.815000
C          13.692000      1.791000      8.636000
C          12.886000      5.348000      4.547000
C          13.164000      3.946000      9.126000
C          14.581000      1.117000      5.335000
C          14.080000      0.960000      7.535000
C          15.643000      3.476000      3.128000
C          16.333000      5.671000      3.664000
C          14.001000      6.205000      8.706000
C          12.530000      2.149000      5.977000
C          17.021000      2.994000      9.487000
C          16.459000      7.125000      7.779000
C          15.331000      4.619000     10.003000
C          14.955000      6.040000      3.784000
C          13.058000      6.523000      6.680000
$end

--------------------------------------------------------------

             Standard Nuclear Orientation (Angstroms)
    I     Atom           X                Y                Z
 ----------------------------------------------------------------
    1      O       1.2090506084     6.2201310880    -1.0366220505
    2      C       1.9532378456     7.3789750125    -0.5825921897
    3      H       1.2879148958     8.0694283145    -0.0485607203
    4      H       2.3962611437     7.8381933917    -1.4750813143
    5      H       2.7216853885     7.1313608327     0.1606988648
    6      O      -0.4102845010     7.4073664897    -1.9793706407
    7      C       0.1098895069     6.3323192338    -1.7559687631
    8      C      -0.4745324391     4.9250252764    -2.2171842298
    9      H       0.3528683959     4.2737201644    -1.9089691923
   10      H      -0.5239085843     4.9167895643    -3.3130460684
   11      C      -1.7880334777     4.5772690702    -1.4709472415
   12      H      -1.4329889093     4.3621427418    -0.4558703886
   13      H      -2.4647145448     5.4400811438    -1.4361326057
   14      C      -2.4279202257     3.3303853030    -2.1463780825
   15      H      -2.5083824113     3.4830874640    -3.2296439256
   16      H      -1.7709364838     2.4909614870    -1.8877953687
   17      C      -3.8528424846     3.0433317847    -1.8748162414
   18      C      -4.8287986768     4.1633072743    -2.1962745025
   19      C      -5.3926011319     4.2308946569    -3.5175480311
   20      H      -5.2175014054     3.4674682288    -4.2695820560
   21      C      -6.2672157290     5.2789390240    -3.8167173997
   22      H      -6.6563225200     5.3830467223    -4.8244710860
   23      C      -6.5871137429     6.3074633147    -2.8614038155
   24      H      -7.2735749014     7.1024975109    -3.1365287046
   25      C      -6.0403126927     6.1989482455    -1.5698771641
   26      H      -6.1732325174     6.9261714335    -0.7747597167
   27      C      -5.2298104915     5.0849558445    -1.2570895167
   28      H      -4.9290865116     4.9170067343    -0.2275011600
   29      C      -6.8805932990     1.1157875678     2.2530100991
   30      C      -8.2890315761     0.6955280825     0.3185777316
   31      C      -7.7896519185    -3.6817867616     0.3544206279
   32      C      -2.3711068370    -0.8519297286     1.7732794555
   33      C      -5.3152627922    -3.8085215165    -2.1207007335
   34      C      -7.3040290871     1.4472319414     0.9593533593
   35      C      -2.6147547288    -3.2142435596     0.2575370405
   36      C      -8.2438266990    -2.1941606770     2.1872353761
   37      C      -5.9588226643     0.0699981836    -2.9658454709
   38      C      -2.0063646183    -0.8082266529     0.4260188441
   39      C      -4.4450820966     1.6511767116    -1.9823034250
   40      C      -4.6665164446    -0.4832258126    -3.1297565587
   41      C      -2.5485688036    -1.6362090713    -1.6385461795
   42      C      -3.5616139975    -3.9937470246    -0.4836092834
   43      C      -6.7963651233     1.6060128195    -1.2372649355
   44      C      -5.7858845981    -4.6370799915     0.1241135059
   45      C      -4.0494527590     2.1470948851    -0.6431053095
   46      C      -3.0020392737     1.4063840729     0.2044148869
   47      C      -6.1805817431    -4.2752635599    -1.1821380141
   48      C      -4.9500237634    -2.5150104930     3.5205303985
   49      C      -6.4090903090    -3.8310190216     2.2797401792
   50      C      -7.1222335626    -2.7542466769     2.8773705143
   51      C      -8.3214555518    -0.8148974352     2.2024889400
   52      C      -3.3257883110     1.3103949858     1.6014623650
   53      C      -5.9109504570     1.3222882372    -2.2654435338
   54      C      -8.8647517009    -0.4099410062     0.9531432772
   55      C      -2.1151191848    -2.0075075852    -0.3454982911
   56      C      -7.9652574350     0.8169057733    -1.1057170981
   57      C      -4.5368161765    -1.9024810716    -3.0607830113
   58      C      -3.9237571531    -0.3304174764     3.2869491575
   59      C      -8.5617525017    -2.6628178717     0.9345069067
   60      C      -3.7410256654     0.3509319708    -2.4496781735
   61      C      -6.3333215139    -0.6220156739     3.6374874325
   62      C      -3.4346396649    -2.4812779928    -2.3652723635
   63      C      -7.1426574144    -0.7121994235    -2.7686014907
   64      C      -4.0882700418    -4.0639941436     1.7382691456
   65      C      -2.9509007479    -3.2195947165     1.6243011821
   66      C      -6.9439427285    -2.1251612522    -2.6925992259
   67      C      -3.0402736837     0.1759024509     2.3460112793
   68      C      -2.4278764214     0.2913791276    -0.3652920476
   69      C      -3.8052949694    -1.7252065044     3.3450549082
   70      C      -5.0771201143     2.2953223365     0.4041704086
   71      C      -8.5482568175    -1.4889673197    -1.1951765787
   72      C      -2.7952212661    -0.2469294130    -1.6278413259
   73      C      -5.6738568692    -2.6825517505    -2.9114638927
   74      C      -5.2032472962     0.2094204856     3.4226545318
   75      C      -7.4343331290    -3.6878831457    -0.9840529026
   76      C      -7.4067081606    -0.0602559727     2.9178339429
   77      C      -6.7877040662    -4.3592889128     1.0616570355
   78      C      -8.1084464026    -0.3273488329    -1.8063584583
   79      C      -7.8630472971    -2.6028237407    -1.8088530298
   80      C      -6.4533215034     2.0972300071     0.0243597113
   81      C      -4.6054278403     1.8447482717     1.6732623717
   82      C      -5.0603796876    -3.6897329381     2.7148618891
   83      C      -8.9378926349    -1.5552381389     0.1506678062
   84      C      -3.9437928762    -3.6256770069    -1.7798016946
   85      C      -2.8420442615    -2.0190265653     2.3805758543
   86      C      -4.4187583676    -4.4883172255     0.4482624058
   87      C      -5.5428540288     1.3026246488     2.5957265273
   88      C      -6.2161402551    -2.0147761176     3.6172909222
   89      O       9.5016500653    -1.9840062925    -3.5191171841
   90      C      10.3257211739    -0.8759932701    -3.0851817624
   91      H      10.2322998780    -0.5414500606    -2.0445947635
   92      H      10.0049553677     0.0234827313    -3.6254402380
   93      H      11.3843073678    -1.0591924034    -3.3023990447
   94      O      10.4085307708    -3.2570677459    -1.7845077405
   95      C       9.6484878073    -3.1525616770    -2.7485213168
   96      C       8.8341747397    -4.2821002692    -3.2143225584
   97      H       9.2440059831    -5.1824065785    -2.7414410707
   98      H       8.8917504466    -4.5225402050    -4.2834168832
   99      C       7.3268459006    -4.0533487549    -2.9972430438
  100      H       6.9014853686    -3.2306981867    -3.5844461265
  101      H       6.6911025826    -4.8746909061    -3.3525689566
  102      C       7.0151644002    -3.9894809251    -1.5084124481
  103      H       7.1340751211    -5.0040824930    -1.1079453473
  104      H       7.7278575950    -3.3000843971    -1.0378820693
  105      C       5.5789839819    -3.5894792366    -1.1641429966
  106      C       4.4420751572    -4.6317488878    -1.3629627605
  107      C       4.1839233410    -5.5605409267    -0.4117955890
  108      H       4.6475378717    -5.4073282378     0.5578947940
  109      C       3.4829557988    -6.7064249939    -0.7799412250
  110      H       3.3463949648    -7.5742123430    -0.1419833460
  111      C       2.9339292642    -6.8205969503    -2.0587976003
  112      H       2.3533929634    -7.6816728144    -2.3757123520
  113      C       3.0502218250    -5.7853079105    -2.9556017285
  114      H       2.6657379120    -5.7706265101    -3.9710733319
  115      C       3.8353905832    -4.6712167714    -2.6231683444
  116      H       4.2460448878    -4.0098507446    -3.3802522372
  117      C       1.4503391855     0.2049357307    -1.0289645913
  118      C       1.2085692205    -0.9629080336     1.0936640211
  119      C       2.8988912268     2.5929016614     3.6851994595
  120      C       6.2346655759     1.9566619571    -1.7764505230
  121      C       6.1871162057     1.2731458673     3.8173513874
  122      C       1.5296863046    -0.9621060626    -0.2520659574
  123      C       7.3033283560     2.6423323974     0.7013331459
  124      C       1.3107788150     2.5101584482     1.7661284529
  125      C       4.9762353500    -2.1530932562     2.2968797427
  126      C       7.1822787576     1.0685726794    -1.1814406973
  127      C       5.4589889700    -2.5930132947     0.0645586856
  128      C       6.2526415908    -1.6822788449     2.0994793915
  129      C       7.7639716441     0.2647301664     0.8920145349
  130      C       7.0912936201     2.7279294947     2.0962895638
  131      C       3.0489692434    -2.2950370438     0.8133177065
  132      C       5.0254086772     3.3979053853     3.3351215575
  133      C       5.0563439479    -2.1506132923    -1.3191790873
  134      C       5.7893931407    -0.8906143136    -1.7799571840
  135      C       5.0922375486     2.1898396124     4.0374861282
  136      C       3.6655336023     3.9688450292    -0.4422649337
  137      C       3.2564434746     3.9810452404     1.7638752301
  138      C       2.1340330301     3.4787556646     1.1392417567
  139      C       0.8031311851     1.4569268166     0.9599280969
  140      C       4.8574074642    -0.0007707988    -2.3083209015
  141      C       4.4522178075    -2.4861895437     1.1042132016
  142      C       0.9489723578     0.3215775149     1.7364706363
  143      C       7.7409076503     1.4160809232     0.0904176992
  144      C       2.1745937432    -1.7795470670     1.7523675286
  145      C       6.7247998928    -0.7132210566     2.8930199014
  146      C       3.9801488134     2.3146530220    -2.1817634453
  147      C       1.7310211375     2.0284530849     2.9966232044
  148      C       6.5733856052    -1.8667985232     0.7506273739
  149      C       1.8691267653     2.4317779598    -1.0063228209
  150      C       7.4958596250     0.3152133864     2.2851395795
  151      C       4.1195050734    -1.5807668291     3.2712886374
  152      C       5.6048784867     4.1016273667     1.0660593916
  153      C       6.3818285765     3.4994527287     0.0779681694
  154      C       4.5721651982    -0.5505504210     4.0472950574
  155      C       5.0315357932     1.4320496359    -2.3331790371
  156      C       6.9585948901    -0.3490386114    -1.1457229780
  157      C       4.4976631129     3.3570081369    -1.4194532957
  158      C       3.5536573398    -1.6747530489    -1.4779209740
  159      C       2.3684642675    -0.1765472050     3.6431492882
  160      C       7.2453961510    -0.7749879268     0.1465839583
  161      C       5.9079466524    -0.0773294444     3.8312723414
  162      C       2.6498214729     1.8195921697    -1.9755525831
  163      C       3.8000327525     1.7208012655     4.3465925725
  164      C       1.0720734520     1.4292228849    -0.3962995939
  165      C       3.6654394921     3.5657429152     3.0271290591
  166      C       2.8124626475    -1.2965301982     2.9107603659
  167      C       3.5320041036     0.3132886251     4.3272325502
  168      C       2.6273791279    -1.8415640634    -0.4406954635
  169      C       3.5555351391    -0.4701308219    -2.1256637964
  170      C       4.2205720220     4.2657948288     0.7507711803
  171      C       1.4292382174     0.6422708355     3.0181369339
  172      C       7.1139395108     1.5686182536     2.8470882118
  173      C       5.8548303271     3.1217486942    -1.1903241895
  174      C       5.9885610678     3.6192538036     2.3072750951
  175      C       2.4544879669     0.4287832936    -1.9550955180
  176      C       2.3663141332     3.4959841586    -0.2808141112
 ----------------------------------------------------------------

    9   -5804.2543073351      8.44E-06 Convergence criterion met
 Total energy in the final basis set = -5804.2543073351

                    Orbital Energies (a.u.)
 --------------------------------------------------------------

 Alpha MOs
 -- Occupied --
-19.199 -19.195 -19.146 -19.123 -10.324 -10.310 -10.251 -10.250
-10.247 -10.243 -10.238 -10.236 -10.235 -10.232 -10.232 -10.228
-10.227 -10.227 -10.225 -10.225 -10.224 -10.224 -10.223 -10.223
-10.223 -10.222 -10.222 -10.222 -10.222 -10.221 -10.221 -10.221
-10.221 -10.221 -10.220 -10.220 -10.220 -10.220 -10.220 -10.220
-10.220 -10.219 -10.219 -10.219 -10.218 -10.218 -10.218 -10.217
-10.217 -10.217 -10.217 -10.217 -10.217 -10.217 -10.217 -10.217
-10.217 -10.217 -10.217 -10.216 -10.216 -10.216 -10.216 -10.216
-10.215 -10.215 -10.215 -10.215 -10.215 -10.215 -10.215 -10.215
-10.215 -10.214 -10.214 -10.214 -10.214 -10.214 -10.214 -10.214
-10.214 -10.213 -10.213 -10.213 -10.213 -10.213 -10.213 -10.213
-10.213 -10.213 -10.212 -10.212 -10.212 -10.212 -10.212 -10.212
-10.212 -10.212 -10.211 -10.211 -10.211 -10.211 -10.211 -10.211
-10.211 -10.211 -10.211 -10.211 -10.211 -10.211 -10.210 -10.210
-10.210 -10.210 -10.209 -10.209 -10.209 -10.209 -10.209 -10.209
-10.209 -10.208 -10.208 -10.208 -10.208 -10.208 -10.207 -10.207
-10.207 -10.206 -10.206 -10.205 -10.205 -10.205 -10.204 -10.204
-10.202 -10.201 -10.201 -10.200 -10.200 -10.200 -10.200 -10.199
-10.199 -10.198 -10.198 -10.194  -1.104  -1.086  -1.011  -1.002
 -0.984  -0.981  -0.968  -0.964  -0.963  -0.960  -0.960  -0.959
 -0.932  -0.931  -0.929  -0.927  -0.925  -0.924  -0.922  -0.922
 -0.921  -0.918  -0.898  -0.894  -0.893  -0.890  -0.887  -0.880
 -0.880  -0.871  -0.862  -0.849  -0.841  -0.840  -0.839  -0.838
 -0.835  -0.835  -0.827  -0.823  -0.814  -0.800  -0.799  -0.798
 -0.796  -0.795  -0.793  -0.793  -0.791  -0.790  -0.784  -0.780
 -0.774  -0.771  -0.768  -0.768  -0.767  -0.766  -0.764  -0.760
 -0.758  -0.748  -0.747  -0.744  -0.734  -0.733  -0.719  -0.717
 -0.713  -0.713  -0.712  -0.711  -0.710  -0.710  -0.709  -0.707
 -0.707  -0.706  -0.705  -0.705  -0.703  -0.703  -0.675  -0.671
 -0.658  -0.657  -0.655  -0.654  -0.650  -0.645  -0.635  -0.631
 -0.629  -0.628  -0.625  -0.622  -0.621  -0.621  -0.620  -0.617
 -0.616  -0.615  -0.615  -0.613  -0.612  -0.611  -0.609  -0.608
 -0.607  -0.603  -0.602  -0.599  -0.569  -0.568  -0.565  -0.563
 -0.563  -0.560  -0.560  -0.558  -0.558  -0.554  -0.553  -0.549
 -0.538  -0.535  -0.534  -0.530  -0.529  -0.526  -0.525  -0.524
 -0.523  -0.522  -0.521  -0.520  -0.516  -0.515  -0.515  -0.512
 -0.512  -0.506  -0.503  -0.496  -0.494  -0.492  -0.487  -0.486
 -0.485  -0.483  -0.482  -0.480  -0.478  -0.477  -0.476  -0.476
 -0.474  -0.473  -0.470  -0.470  -0.469  -0.468  -0.468  -0.466
 -0.465  -0.465  -0.464  -0.463  -0.462  -0.459  -0.458  -0.458
 -0.455  -0.455  -0.454  -0.452  -0.451  -0.446  -0.445  -0.443
 -0.442  -0.442  -0.440  -0.439  -0.438  -0.436  -0.436  -0.433
 -0.432  -0.430  -0.429  -0.428  -0.427  -0.426  -0.426  -0.426
 -0.423  -0.423  -0.422  -0.421  -0.419  -0.419  -0.418  -0.417
 -0.416  -0.416  -0.416  -0.414  -0.414  -0.413  -0.413  -0.413
 -0.412  -0.411  -0.410  -0.406  -0.404  -0.399  -0.398  -0.396
 -0.394  -0.394  -0.391  -0.390  -0.389  -0.388  -0.387  -0.385
 -0.384  -0.381  -0.379  -0.373  -0.372  -0.370  -0.369  -0.366
 -0.365  -0.364  -0.362  -0.361  -0.360  -0.359  -0.359  -0.358
 -0.358  -0.357  -0.356  -0.356  -0.354  -0.353  -0.352  -0.351
 -0.350  -0.349  -0.349  -0.348  -0.347  -0.347  -0.346  -0.345
 -0.343  -0.342  -0.341  -0.339  -0.338  -0.337  -0.334  -0.333
 -0.331  -0.330  -0.330  -0.328  -0.326  -0.326  -0.324  -0.324
 -0.310  -0.304  -0.301  -0.297  -0.288  -0.286  -0.276  -0.272
 -0.272  -0.269  -0.268  -0.268  -0.266  -0.266  -0.264  -0.263
 -0.262  -0.261  -0.260  -0.258  -0.257  -0.256  -0.255  -0.253
 -0.251  -0.247  -0.243  -0.243  -0.225  -0.223  -0.213  -0.212
 -0.209  -0.208  -0.205  -0.203  -0.200  -0.195

          Ground-State Mulliken Net Atomic Charges

     Atom                 Charge (a.u.)
  ----------------------------------------
      1 O                    -0.439872
      2 C                    -0.088085
      3 H                     0.135730
      4 H                     0.132554
      5 H                     0.127867
      6 O                    -0.474752
      7 C                     0.558859
      8 C                    -0.262351
      9 H                     0.125764
     10 H                     0.126850
     11 C                    -0.191110
     12 H                     0.110065
     13 H                     0.134537
     14 C                    -0.164146
     15 H                     0.104341
     16 H                     0.110811
     17 C                     0.005159
     18 C                     0.081725
     19 C                    -0.099428
     20 H                     0.095222
     21 C                    -0.095293
     22 H                     0.089727
     23 C                    -0.085525
     24 H                     0.095466
     25 C                    -0.088413
     26 H                     0.096291
     27 C                    -0.104113
     28 H                     0.092204
     29 C                    -0.022155
     30 C                     0.012884
     31 C                     0.026862
     32 C                     0.025661
     33 C                    -0.032004
     34 C                     0.007445
     35 C                    -0.015529
     36 C                    -0.012950
     37 C                     0.000163
     38 C                    -0.026801
     39 C                    -0.091777
     40 C                     0.001268
     41 C                    -0.006735
     42 C                     0.018936
     43 C                     0.046247
     44 C                    -0.027640
     45 C                    -0.057856
     46 C                    -0.013078
     47 C                     0.033349
     48 C                     0.013896
     49 C                     0.007579
     50 C                     0.009088
     51 C                     0.025659
     52 C                    -0.011570
     53 C                     0.019022
     54 C                    -0.035316
     55 C                    -0.011838
     56 C                    -0.043559
     57 C                    -0.009700
     58 C                    -0.019438
     59 C                     0.009182
     60 C                     0.008419
     61 C                    -0.016590
     62 C                    -0.010122
     63 C                    -0.038876
     64 C                    -0.016593
     65 C                    -0.016631
     66 C                     0.021734
     67 C                     0.025944
     68 C                     0.024086
     69 C                    -0.001636
     70 C                    -0.001055
     71 C                     0.022186
     72 C                     0.027334
     73 C                     0.021153
     74 C                     0.001229
     75 C                    -0.013067
     76 C                    -0.005423
     77 C                    -0.020465
     78 C                     0.029714
     79 C                    -0.034000
     80 C                     0.001184
     81 C                     0.015961
     82 C                    -0.025055
     83 C                    -0.010095
     84 C                     0.006327
     85 C                     0.005921
     86 C                     0.023621
     87 C                    -0.001477
     88 C                     0.013186
     89 O                    -0.476929
     90 C                    -0.088162
     91 H                     0.131107
     92 H                     0.119509
     93 H                     0.125772
     94 O                    -0.473191
     95 C                     0.622355
     96 C                    -0.251951
     97 H                     0.137541
     98 H                     0.130167
     99 C                    -0.202746
    100 H                     0.122713
    101 H                     0.108675
    102 C                    -0.187662
    103 H                     0.119623
    104 H                     0.128998
    105 C                     0.003343
    106 C                     0.086877
    107 C                    -0.097679
    108 H                     0.096031
    109 C                    -0.102380
    110 H                     0.095650
    111 C                    -0.072160
    112 H                     0.092980
    113 C                    -0.093368
    114 H                     0.093069
    115 C                    -0.099715
    116 H                     0.091738
    117 C                    -0.016776
    118 C                    -0.022409
    119 C                    -0.003762
    120 C                     0.002652
    121 C                     0.007291
    122 C                     0.015760
    123 C                     0.001481
    124 C                    -0.021540
    125 C                    -0.014900
    126 C                    -0.027071
    127 C                    -0.108828
    128 C                     0.028460
    129 C                     0.017454
    130 C                    -0.011801
    131 C                     0.006694
    132 C                    -0.010963
    133 C                    -0.095220
    134 C                     0.040836
    135 C                     0.002080
    136 C                     0.010074
    137 C                     0.008316
    138 C                    -0.010864
    139 C                     0.000523
    140 C                     0.019186
    141 C                     0.059113
    142 C                     0.032282
    143 C                    -0.018785
    144 C                    -0.041517
    145 C                    -0.013985
    146 C                     0.000885
    147 C                     0.011012
    148 C                     0.023199
    149 C                    -0.010111
    150 C                    -0.037652
    151 C                    -0.021182
    152 C                     0.002137
    153 C                    -0.005394
    154 C                     0.017889
    155 C                    -0.016765
    156 C                    -0.033052
    157 C                    -0.014760
    158 C                     0.009235
    159 C                    -0.013447
    160 C                     0.030519
    161 C                     0.002660
    162 C                    -0.020026
    163 C                    -0.010240
    164 C                     0.001612
    165 C                    -0.000322
    166 C                     0.038217
    167 C                    -0.015505
    168 C                     0.016644
    169 C                     0.014373
    170 C                    -0.015291
    171 C                    -0.025752
    172 C                     0.023117
    173 C                     0.010867
    174 C                    -0.001230
    175 C                     0.013678
    176 C                     0.044407
  ----------------------------------------
  Sum of atomic charges =     0.000000

                    Cartesian Multipole Moments
 -----------------------------------------------------------------
    Charge (ESU x 10^10)
                 0.0000
    Dipole Moment (Debye)
         X       1.9057      Y      -1.4858      Z      -2.5755
       Tot       3.5316
    Quadrupole Moments (Debye-Ang)
        XX    -824.4285     XY      -6.4272     YY    -792.4283
        XZ     -12.6745     YZ      13.9296     ZZ    -798.4889

 Total job time:  868.97s(wall), 7326.20s(cpu)
        *  Thank you very much for using Q-Chem.  Have a nice day.  *
