 Q-Chem 4.4, Q-Chem, Inc., Pleasanton, CA (2016)
 Q-Chem 4.4.2 for Intel X86 Linux

User input:
--------------------------------------------------------------
$comment
SP
$end

$rem
MEM_STATIC 5000
MEM_TOTAL 20000
JOBTYPE SP
EXCHANGE B3LYP
BASIS 6-31g(d,p)
$end

$molecule
0 1
O          10.263000     12.100000      9.309000
C          11.515000     12.743000      9.282000
H          12.315000     12.032000      9.522000
H          11.470000     13.610000      9.953000
H          11.699000     13.073000      8.252000
O           9.215000     13.993000      8.925000
C           9.129000     12.824000      9.141000
C           7.850000     12.062000      9.026000
H           7.927000     11.487000      8.094000
H           7.048000     12.782000      8.824000
C           7.446000     11.168000     10.334000
H           8.201000     10.376000     10.402000
H           7.705000     11.732000     11.238000
C           5.956000     10.687000     10.360000
H           5.321000     11.447000     10.832000
H           5.699000     10.456000      9.319000
C           5.841000      9.393000     11.224000
C           5.976000      9.713000     12.745000
C           4.911000     10.393000     13.358000
H           4.041000     10.711000     12.792000
C           5.083000     10.677000     14.738000
H           4.343000     11.277000     15.259000
C           6.355000     10.729000     15.316000
H           6.520000     11.275000     16.240000
C           7.364000      9.988000     14.639000
H           8.344000      9.838000     15.082000
C           7.245000      9.389000     13.404000
H           8.116000      8.918000     12.958000
C           7.706000      4.268000     11.784000
C           5.427000      4.034000     12.495000
C           4.014000      1.748000      8.900000
C           7.922000      6.362000      7.114000
C           2.578000      4.508000      7.372000
C           6.624000      4.766000     12.415000
C           5.654000      5.569000      5.793000
C           6.099000      1.483000     10.163000
C           3.098000      6.755000     10.668000
C           6.796000      7.194000      7.169000
C           4.938000      8.219000     10.712000
C           3.103000      7.317000      9.427000
C           4.625000      7.393000      7.062000
C           4.464000      4.800000      5.856000
C           4.904000      6.257000     12.258000
C           4.101000      2.669000      6.904000
C           6.441000      8.107000     10.720000
C           7.161000      7.941000      9.425000
C           2.955000      3.172000      7.553000
C           8.037000      2.909000      7.557000
C           6.138000      1.708000      7.772000
C           6.788000      1.604000      8.946000
C           6.499000      2.190000     11.322000
C           8.228000      7.010000      9.487000
C           4.227000      7.208000     11.433000
C           5.380000      2.753000     11.922000
C           5.698000      6.880000      6.383000
C           4.398000      4.950000     12.407000
C           2.645000      6.640000      8.272000
C           8.972000      4.930000      8.541000
C           4.680000      1.528000     10.170000
C           4.204000      8.179000      9.354000
C           8.346000      3.020000      9.989000
C           3.439000      6.630000      7.133000
C           2.560000      5.433000     10.847000
C           6.242000      3.337000      5.976000
C           6.747000      4.695000      5.795000
C           2.211000      4.713000      9.716000
C           8.622000      6.255000      8.341000
C           6.421000      7.999000      8.244000
C           8.556000      4.196000      7.412000
C           7.064000      6.977000     11.478000
C           3.192000      3.260000     11.062000
C           5.004000      8.091000      8.208000
C           2.177000      5.311000      8.435000
C           8.912000      4.362000      9.821000
C           2.950000      2.584000      8.763000
C           7.672000      2.967000     11.212000
C           4.750000      1.764000      7.734000
C           3.218000      4.523000     11.702000
C           2.546000      3.358000      9.861000
C           6.265000      6.125000     12.232000
C           8.170000      6.432000     10.774000
C           6.924000      2.451000      6.841000
C           4.262000      2.363000     11.228000
C           3.335000      5.342000      6.523000
C           7.905000      5.068000      6.554000
C           4.888000      3.491000      6.073000
C           8.448000      5.088000     10.932000
C           7.900000      2.399000      8.863000
O          22.464000      6.049000      5.027000
C          22.558000      6.384000      6.432000
H          22.028000      5.746000      7.150000
H          22.053000      7.345000      6.591000
H          23.603000      6.478000      6.749000
O          23.280000      3.923000      5.543000
C          22.870000      4.738000      4.715000
C          22.803000      4.416000      3.284000
H          23.404000      3.511000      3.136000
H          23.270000      5.132000      2.596000
C          21.356000      4.337000      2.763000
H          20.809000      5.287000      2.791000
H          21.275000      4.115000      1.691000
C          20.626000      3.172000      3.417000
H          21.050000      2.249000      3.002000
H          20.796000      3.225000      4.500000
C          19.128000      3.095000      3.115000
C          18.670000      2.602000      1.713000
C          18.574000      1.278000      1.445000
H          18.618000      0.604000      2.295000
C          18.582000      0.871000      0.113000
H          18.655000     -0.162000     -0.213000
C          18.539000      1.814000     -0.916000
H          18.511000      1.539000     -1.966000
C          18.452000      3.154000     -0.622000
H          18.416000      3.967000     -1.341000
C          18.540000      3.573000      0.714000
H          18.825000      4.586000      0.982000
C          13.925000      5.136000      3.589000
C          13.603000      2.730000      3.777000
C          12.740000      2.817000      8.410000
C          17.460000      6.911000      6.886000
C          16.075000      2.014000      9.307000
C          14.271000      3.819000      3.246000
C          17.346000      5.361000      9.196000
C          11.986000      4.264000      6.526000
C          16.976000      1.158000      5.569000
C          18.478000      5.930000      7.091000
C          18.233000      2.700000      4.364000
C          17.917000      1.632000      6.452000
C          18.714000      3.803000      7.930000
C          16.719000      4.287000      9.868000
C          15.831000      2.211000      3.694000
C          14.305000      3.636000      9.884000
C          18.104000      4.063000      3.733000
C          18.317000      5.204000      4.728000
C          14.680000      2.354000      9.468000
C          14.007000      6.970000      7.595000
C          13.006000      5.196000      8.536000
C          12.451000      5.367000      7.285000
C          12.247000      4.269000      5.130000
C          17.292000      6.133000      4.567000
C          17.024000      1.902000      4.450000
C          12.636000      2.973000      4.843000
C          18.430000      5.132000      8.279000
C          14.587000      1.741000      4.073000
C          17.666000      1.586000      7.766000
C          15.503000      7.388000      5.738000
C          12.192000      3.001000      7.060000
C          18.666000      2.613000      5.794000
C          13.309000      6.457000      5.324000
C          18.055000      2.708000      8.548000
C          15.712000      0.694000      6.014000
C          15.159000      5.892000      9.483000
C          16.372000      6.347000      8.969000
C          15.423000      0.698000      7.350000
C          16.826000      7.012000      5.613000
C          18.892000      5.050000      6.035000
C          15.268000      7.412000      7.109000
C          16.664000      4.433000      3.186000
C          13.502000      1.185000      6.240000
C          18.942000      3.767000      6.569000
C          16.419000      1.190000      8.256000
C          14.524000      6.891000      4.815000
C          13.692000      1.791000      8.636000
C          12.886000      5.348000      4.547000
C          13.164000      3.946000      9.126000
C          14.581000      1.117000      5.335000
C          14.080000      0.960000      7.535000
C          15.643000      3.476000      3.128000
C          16.333000      5.671000      3.664000
C          14.001000      6.205000      8.706000
C          12.530000      2.149000      5.977000
C          17.021000      2.994000      9.487000
C          16.459000      7.125000      7.779000
C          15.331000      4.619000     10.003000
C          14.955000      6.040000      3.784000
C          13.058000      6.523000      6.680000
$end

--------------------------------------------------------------

             Standard Nuclear Orientation (Angstroms)
    I     Atom           X                Y                Z
 ----------------------------------------------------------------
    1      O       2.8017276672    -6.3214030280    -2.2526837029
    2      C       1.7637142970    -7.2720935561    -2.2726277004
    3      H       0.9972187570    -7.0166052633    -1.5307845098
    4      H       2.2065281572    -8.2665447106    -2.1350130698
    5      H       1.2729926427    -7.2105182265    -3.2519421222
    6      O       3.9501800852    -7.4551381372    -3.7442971735
    7      C       3.9017697908    -6.5073641029    -3.0231912012
    8      C       4.8907867979    -5.3897164392    -3.0723751380
    9      H       4.3738255249    -4.5539771567    -3.5617307285
   10      H       5.6747657665    -5.6672379645    -3.7870546325
   11      C       5.5852788413    -5.0041313971    -1.6432771789
   12      H       4.7818186288    -4.5966654105    -1.0185082962
   13      H       5.7835119815    -5.9290814790    -1.0886926785
   14      C       6.8686256077    -4.1145859185    -1.7610350610
   15      H       7.7568953157    -4.7461851169    -1.8862084544
   16      H       6.6767608464    -3.4225797079    -2.5901347642
   17      C       7.0644349989    -3.3048713735    -0.4418769818
   18      C       7.5609959518    -4.2223994483     0.7181382991
   19      C       8.8794512583    -4.7003540395     0.6431115467
   20      H       9.5195771146    -4.4669668952    -0.2019620175
   21      C       9.2837039509    -5.5435436816     1.7109369014
   22      H      10.2575638325    -6.0226360539     1.6776438116
   23      C       8.3468690268    -6.2308711147     2.4885571973
   24      H       8.6350455224    -7.1175356383     3.0452414256
   25      C       7.0449996150    -5.6570295752     2.5250664048
   26      H       6.2887446571    -6.0223158739     3.2133928961
   27      C       6.5903668606    -4.6174673810     1.7435252972
   28      H       5.5476260755    -4.3215143123     1.8106180403
   29      C       4.6643172473     0.2706336362     2.9511524469
   30      C       6.9644745581     0.9359385774     3.0952485278
   31      C       6.5178158583     4.7763246569     0.8152659037
   32      C       3.1089635506     0.2378705856    -1.9294411094
   33      C       7.7499797658     3.4742178961    -2.1513432868
   34      C       5.9727428151    -0.0524355048     2.9743443365
   35      C       4.5479652316     2.1795041753    -3.2244496674
   36      C       5.0370665259     3.8265366372     2.5234529930
   37      C       8.8934265717     0.0764958851    -0.3262297182
   38      C       4.3033689797    -0.1312610770    -2.5621041214
   39      C       7.4907055946    -1.7996727203    -0.5340691386
   40      C       8.5288754273     0.0801304731    -1.6388756160
   41      C       6.2788154725     0.4484940861    -3.2872152195
   42      C       5.5204745525     3.2040812020    -3.0983642320
   43      C       7.7469475863    -0.7106262284     1.6995453716
   44      C       5.8624960912     4.7417079222    -1.2845397265
   45      C       6.1031861574    -2.1971907877    -0.1000343505
   46      C       4.9378111047    -1.7800361286    -0.9312166270
   47      C       7.2368347713     4.4281511335    -1.2645064397
   48      C       2.5572365462     2.9936810360     0.1281762199
   49      C       4.1561688526     4.5611724776     0.4131552720
   50      C       3.9796085781     3.9764620442     1.6125435238
   51      C       5.2264108564     2.6323296133     3.2590808259
   52      C       3.8230102782    -1.3525940678    -0.1672752667
   53      C       8.2271658739    -0.9823627587     0.3808700308
   54      C       6.5686014568     2.2776717961     3.2158116133
   55      C       4.9581746111     0.8062783678    -3.3458421991
   56      C       8.0323425005     0.5192134193     2.3260676647
   57      C       8.3992123517     1.2659135480    -2.3999432780
   58      C       2.4263525504     0.5643814618     0.2192528824
   59      C       6.3416821462     4.2483151547     2.1550565146
   60      C       7.6502801634    -0.9913875552    -1.8401055274
   61      C       3.1953916135     1.8405431657     2.1983107958
   62      C       7.2516999520     1.4634611325    -3.1562813271
   63      C       9.2164563100     1.3178694551     0.3247790741
   64      C       3.6846325241     3.8338321883    -1.8537153892
   65      C       3.3973254309     2.5730779208    -2.5318771038
   66      C       8.9886679894     2.4955845363    -0.3683743494
   67      C       2.9058951368    -0.3814360357    -0.6715855818
   68      C       5.1857183653    -1.1236583539    -2.1368016332
   69      C       2.2579289264     1.7752127793    -0.4821557029
   70      C       5.6157446403    -1.7276258142     1.2346950240
   71      C       8.3352811357     2.8945370153     1.7050789389
   72      C       6.4809061900    -0.7260080314    -2.5634299489
   73      C       8.6512438315     2.4967481515    -1.7416421979
   74      C       2.8544373573     0.5685127162     1.5539252507
   75      C       7.5853103947     4.4590589796     0.0345233694
   76      C       4.2534208572     1.6249185983     3.0853813485
   77      C       5.4178010730     4.9810830302     0.0093195775
   78      C       8.7719240416     1.5487676056     1.6443116074
   79      C       8.4971369214     3.4937215354     0.4868418456
   80      C       6.4728010219    -1.0312247599     2.0792664718
   81      C       4.2500935000    -1.3432754263     1.1785813693
   82      C       3.2261609766     4.0323348766    -0.5313139664
   83      C       7.2622593855     3.2508599104     2.5409756539
   84      C       6.8928727458     2.8443747601    -3.0776646027
   85      C       2.6882445903     1.5758687029    -1.7842460871
   86      C       4.9825710879     4.1053029900    -2.1825011683
   87      C       3.8173023122    -0.3411004918     2.0252933559
   88      C       3.0754273245     2.9628702977     1.4377692925
   89      O     -10.9806469431    -3.4189718897     0.0789615507
   90      C     -10.4869848445    -4.2903675562     1.1239751032
   91      H      -9.8507138684    -3.8515328939     1.9024681244
   92      H      -9.7975824421    -5.0140004479     0.6713088181
   93      H     -11.3059968515    -4.8370006972     1.6053912865
   94      O     -11.9098787853    -2.0611902885     1.7357491976
   95      C     -11.6983218600    -2.3020199634     0.5461468543
   96      C     -12.2239320395    -1.4403809792    -0.5202706062
   97      H     -12.9869033416    -0.8005422336    -0.0613466782
   98      H     -12.7778455582    -1.9374903052    -1.3265901036
   99      C     -11.1111803773    -0.6951496804    -1.2804712702
  100      H     -10.4339172854    -1.3440765100    -1.8485396412
  101      H     -11.4734330432    -0.0561335554    -2.0962288310
  102      C     -10.4094391475     0.2870775737    -0.3527698808
  103      H     -11.1130206490     1.1052161431    -0.1538921495
  104      H     -10.1541750223    -0.2400735043     0.5754272789
  105      C      -9.1687514231     0.9610723152    -0.9423138224
  106      C      -9.3573022378     2.0859006420    -1.9994925326
  107      C      -9.6031871341     3.3605825030    -1.6138206888
  108      H      -9.4478809788     3.5910493564    -0.5643079315
  109      C     -10.1755814767     4.2318398944    -2.5375155921
  110      H     -10.5455790118     5.2240775791    -2.2982245537
  111      C     -10.3504772966     3.8402847431    -3.8664380939
  112      H     -10.7622951745     4.4988943951    -4.6250871311
  113      C      -9.9252491938     2.6013592297    -4.2833908884
  114      H     -10.0147659133     2.1972765994    -5.2873480513
  115      C      -9.4367988725     1.6868772405    -3.3382242496
  116      H      -9.4182904360     0.6177857354    -3.5277467852
  117      C      -3.8873190694     0.7188856073    -2.8156487876
  118      C      -3.9497033444     2.8178424948    -1.5834344446
  119      C      -1.4321853250     1.2019247017     2.0590838749
  120      C      -5.5765437527    -3.2577673640    -0.0138975290
  121      C      -4.2835432354     0.4504783550     4.0280250765
  122      C      -4.5628141574     1.8727770940    -2.3865860613
  123      C      -4.8916325769    -2.7972922822     2.6451352613
  124      C      -1.1860381676     0.9457052552    -0.4078056995
  125      C      -6.6404304723     2.3627631798     1.5169634880
  126      C      -6.6025661896    -2.8276215459     0.8821842385
  127      C      -7.9600562076     1.1012883097     0.0757462696
  128      C      -7.0878457891     1.3007983678     2.2665608949
  129      C      -6.8834684749    -1.4067343493     2.6670986569
  130      C      -4.2610609403    -1.9339787821     3.5699369761
  131      C      -6.1040773537     2.5692573770    -0.8505551453
  132      C      -2.1688436779    -0.5927703771     3.2956379761
  133      C      -7.8348870300     0.2202478103    -1.1410821141
  134      C      -7.4589428776    -1.2213877137    -0.7981127128
  135      C      -2.8916180115     0.5502960541     3.6536902023
  136      C      -2.1546593435    -2.4602600778    -0.3038289320
  137      C      -1.2072669547    -0.9790906260     1.0901376087
  138      C      -1.1339947906    -0.4526780838    -0.1825713232
  139      C      -1.9399651601     1.4054665280    -1.5200896839
  140      C      -6.4194471959    -1.6218694222    -1.6339656478
  141      C      -6.9668354844     2.1479419641     0.2303739601
  142      C      -2.6302284341     2.5052399231    -1.0432866933
  143      C      -6.2601705627    -2.5935386355     2.2527397558
  144      C      -4.9124468650     3.2301585158    -0.6153882616
  145      C      -6.3806473321     0.9052728076     3.3319917343
  146      C      -4.1324486810    -2.5772109646    -1.6951810896
  147      C      -1.3996463395     1.7538311173     0.6985690742
  148      C      -7.8409452073     0.4720797985     1.4284721173
  149      C      -2.4495780421    -0.8979904245    -2.1423474909
  150      C      -6.2474197642    -0.4936804151     3.5485772731
  151      C      -5.4050666402     2.9990685682     1.7998215001
  152      C      -2.6970062089    -2.6526681434     2.0883606537
  153      C      -3.9129959011    -3.2374424099     1.7390783525
  154      C      -4.6462244486     2.5643194827     2.8503379259
  155      C      -5.4517547068    -2.6367498966    -1.2911801912
  156      C      -7.5267158863    -1.7909726404     0.5185382776
  157      C      -3.4063571619    -3.0605469900    -0.6113824956
  158      C      -6.6587143611     0.5875349111    -2.1367864068
  159      C      -3.2191233198     3.2095787796     1.2051835842
  160      C      -7.6015972118    -0.9147345166     1.5957311747
  161      C      -5.1320985324     1.4598815896     3.6243271474
  162      C      -3.6692556484    -1.4673365541    -2.4768523808
  163      C      -2.3982053401     1.6840274216     2.9780171141
  164      C      -2.5476484337     0.4989215146    -2.3694118711
  165      C      -1.3540706722    -0.1885019856     2.2254711589
  166      C      -4.5501777109     3.2718732192     0.7444194246
  167      C      -3.3066346848     2.7047562580     2.5465373715
  168      C      -5.9183767778     1.7661272768    -1.9803437707
  169      C      -5.9608977398    -0.5564731007    -2.4106232780
  170      C      -1.8732329570    -2.2379531589     0.9965405627
  171      C      -2.2595294315     2.8018477124     0.2798815004
  172      C      -4.9062517240    -0.7713997192     3.9445738339
  173      C      -4.2952362198    -3.4662804655     0.3861265858
  174      C      -2.8865596819    -1.8193408627     3.1792997556
  175      C      -4.5945235079    -0.4709970502    -2.8291448461
  176      C      -1.7070182113    -1.4062982813    -1.0952939964
 ----------------------------------------------------------------

    9   -5804.2161977165      8.56E-06 Convergence criterion met
 Total energy in the final basis set = -5804.2161977165

                    Orbital Energies (a.u.)
 --------------------------------------------------------------

 Alpha MOs
 -- Occupied --
-19.198 -19.182 -19.145 -19.127 -10.324 -10.310 -10.249 -10.245
-10.243 -10.242 -10.239 -10.238 -10.236 -10.234 -10.233 -10.227
-10.226 -10.224 -10.223 -10.223 -10.222 -10.222 -10.222 -10.221
-10.221 -10.221 -10.221 -10.220 -10.220 -10.220 -10.220 -10.219
-10.219 -10.219 -10.219 -10.218 -10.218 -10.218 -10.218 -10.218
-10.218 -10.218 -10.217 -10.217 -10.217 -10.217 -10.216 -10.216
-10.216 -10.216 -10.216 -10.216 -10.216 -10.215 -10.215 -10.215
-10.215 -10.215 -10.215 -10.215 -10.215 -10.215 -10.215 -10.215
-10.214 -10.214 -10.214 -10.214 -10.214 -10.213 -10.213 -10.213
-10.213 -10.213 -10.213 -10.213 -10.213 -10.212 -10.212 -10.212
-10.212 -10.212 -10.211 -10.211 -10.211 -10.211 -10.211 -10.211
-10.211 -10.211 -10.211 -10.211 -10.211 -10.210 -10.210 -10.210
-10.210 -10.210 -10.210 -10.210 -10.209 -10.209 -10.209 -10.209
-10.209 -10.209 -10.209 -10.209 -10.209 -10.209 -10.209 -10.209
-10.208 -10.208 -10.208 -10.208 -10.208 -10.208 -10.208 -10.207
-10.207 -10.207 -10.207 -10.207 -10.207 -10.206 -10.206 -10.206
-10.206 -10.206 -10.206 -10.206 -10.206 -10.205 -10.205 -10.204
-10.204 -10.204 -10.204 -10.203 -10.203 -10.202 -10.202 -10.201
-10.200 -10.200 -10.199 -10.199  -1.104  -1.085  -1.013  -1.010
 -0.984  -0.982  -0.967  -0.966  -0.963  -0.962  -0.961  -0.959
 -0.934  -0.930  -0.928  -0.927  -0.925  -0.925  -0.924  -0.923
 -0.921  -0.920  -0.898  -0.896  -0.891  -0.890  -0.889  -0.886
 -0.879  -0.872  -0.861  -0.854  -0.840  -0.839  -0.837  -0.837
 -0.835  -0.833  -0.825  -0.822  -0.812  -0.799  -0.797  -0.797
 -0.796  -0.796  -0.794  -0.794  -0.791  -0.791  -0.783  -0.780
 -0.772  -0.771  -0.768  -0.767  -0.767  -0.765  -0.762  -0.761
 -0.757  -0.756  -0.747  -0.741  -0.733  -0.732  -0.717  -0.716
 -0.715  -0.715  -0.713  -0.711  -0.709  -0.709  -0.708  -0.707
 -0.706  -0.705  -0.704  -0.703  -0.702  -0.701  -0.674  -0.673
 -0.658  -0.656  -0.656  -0.653  -0.649  -0.649  -0.633  -0.632
 -0.629  -0.629  -0.627  -0.625  -0.624  -0.619  -0.618  -0.617
 -0.615  -0.614  -0.613  -0.613  -0.610  -0.610  -0.607  -0.607
 -0.606  -0.605  -0.603  -0.601  -0.568  -0.567  -0.565  -0.561
 -0.561  -0.561  -0.559  -0.558  -0.556  -0.556  -0.553  -0.552
 -0.537  -0.537  -0.532  -0.531  -0.528  -0.527  -0.525  -0.524
 -0.523  -0.521  -0.520  -0.519  -0.518  -0.513  -0.513  -0.511
 -0.511  -0.507  -0.505  -0.501  -0.492  -0.489  -0.487  -0.485
 -0.485  -0.484  -0.481  -0.481  -0.479  -0.475  -0.474  -0.474
 -0.472  -0.472  -0.471  -0.467  -0.467  -0.467  -0.467  -0.465
 -0.465  -0.464  -0.464  -0.463  -0.462  -0.461  -0.460  -0.457
 -0.456  -0.454  -0.453  -0.451  -0.450  -0.449  -0.444  -0.443
 -0.440  -0.440  -0.440  -0.439  -0.437  -0.435  -0.435  -0.435
 -0.433  -0.431  -0.430  -0.428  -0.427  -0.426  -0.425  -0.425
 -0.424  -0.422  -0.421  -0.421  -0.419  -0.419  -0.418  -0.416
 -0.416  -0.416  -0.416  -0.415  -0.414  -0.413  -0.412  -0.412
 -0.411  -0.411  -0.410  -0.409  -0.404  -0.403  -0.401  -0.398
 -0.397  -0.393  -0.392  -0.389  -0.388  -0.387  -0.385  -0.383
 -0.383  -0.380  -0.379  -0.372  -0.372  -0.369  -0.368  -0.367
 -0.366  -0.365  -0.364  -0.363  -0.360  -0.358  -0.358  -0.358
 -0.357  -0.356  -0.354  -0.354  -0.353  -0.352  -0.352  -0.352
 -0.349  -0.349  -0.348  -0.348  -0.348  -0.347  -0.346  -0.344
 -0.342  -0.341  -0.341  -0.339  -0.338  -0.337  -0.336  -0.334
 -0.332  -0.332  -0.329  -0.327  -0.326  -0.324  -0.324  -0.323
 -0.311  -0.309  -0.303  -0.293  -0.287  -0.285  -0.276  -0.270
 -0.269  -0.269  -0.268  -0.267  -0.265  -0.264  -0.264  -0.263
 -0.262  -0.260  -0.260  -0.259  -0.259  -0.257  -0.255  -0.254
 -0.251  -0.251  -0.243  -0.241  -0.223  -0.222  -0.211  -0.210
 -0.209  -0.206  -0.203  -0.203  -0.197  -0.193

          Ground-State Mulliken Net Atomic Charges

     Atom                 Charge (a.u.)
  ----------------------------------------
      1 O                    -0.462336
      2 C                    -0.074629
      3 H                     0.119360
      4 H                     0.127078
      5 H                     0.119895
      6 O                    -0.458694
      7 C                     0.578021
      8 C                    -0.263374
      9 H                     0.136090
     10 H                     0.134583
     11 C                    -0.199465
     12 H                     0.123046
     13 H                     0.117311
     14 C                    -0.186812
     15 H                     0.117524
     16 H                     0.117184
     17 C                     0.006148
     18 C                     0.054309
     19 C                    -0.090871
     20 H                     0.105340
     21 C                    -0.105035
     22 H                     0.084815
     23 C                    -0.073618
     24 H                     0.103242
     25 C                    -0.100654
     26 H                     0.081938
     27 C                    -0.076805
     28 H                     0.110129
     29 C                     0.013894
     30 C                     0.009992
     31 C                     0.005342
     32 C                    -0.018786
     33 C                     0.011177
     34 C                    -0.016087
     35 C                     0.012137
     36 C                    -0.009482
     37 C                     0.015674
     38 C                     0.007545
     39 C                    -0.081027
     40 C                     0.023418
     41 C                    -0.005523
     42 C                    -0.013649
     43 C                     0.000225
     44 C                    -0.024888
     45 C                    -0.070012
     46 C                     0.019049
     47 C                     0.013184
     48 C                     0.008190
     49 C                     0.004707
     50 C                     0.029106
     51 C                    -0.015024
     52 C                     0.013709
     53 C                     0.041775
     54 C                     0.029590
     55 C                    -0.012877
     56 C                    -0.015445
     57 C                    -0.019754
     58 C                     0.023029
     59 C                    -0.034297
     60 C                    -0.012304
     61 C                    -0.012506
     62 C                     0.011576
     63 C                    -0.029823
     64 C                    -0.014228
     65 C                    -0.029414
     66 C                     0.014462
     67 C                    -0.017616
     68 C                     0.001161
     69 C                     0.011742
     70 C                     0.006157
     71 C                     0.017036
     72 C                     0.010461
     73 C                    -0.019198
     74 C                    -0.027281
     75 C                     0.012652
     76 C                    -0.010695
     77 C                    -0.004441
     78 C                    -0.027611
     79 C                     0.002061
     80 C                     0.018686
     81 C                    -0.012205
     82 C                    -0.022558
     83 C                    -0.003979
     84 C                    -0.018205
     85 C                    -0.000304
     86 C                     0.038935
     87 C                     0.008834
     88 C                     0.018837
     89 O                    -0.477069
     90 C                    -0.088342
     91 H                     0.131429
     92 H                     0.119530
     93 H                     0.125552
     94 O                    -0.473355
     95 C                     0.622522
     96 C                    -0.251303
     97 H                     0.137146
     98 H                     0.129808
     99 C                    -0.202374
    100 H                     0.122747
    101 H                     0.108222
    102 C                    -0.188441
    103 H                     0.119329
    104 H                     0.129141
    105 C                     0.003919
    106 C                     0.085875
    107 C                    -0.097276
    108 H                     0.096277
    109 C                    -0.102651
    110 H                     0.095124
    111 C                    -0.072489
    112 H                     0.092269
    113 C                    -0.093903
    114 H                     0.092555
    115 C                    -0.098903
    116 H                     0.091876
    117 C                    -0.016274
    118 C                    -0.033055
    119 C                    -0.001975
    120 C                     0.003650
    121 C                     0.007428
    122 C                     0.012614
    123 C                     0.001892
    124 C                    -0.014292
    125 C                    -0.015328
    126 C                    -0.028180
    127 C                    -0.110042
    128 C                     0.028552
    129 C                     0.017683
    130 C                    -0.011417
    131 C                     0.003938
    132 C                    -0.009854
    133 C                    -0.093771
    134 C                     0.041516
    135 C                     0.001902
    136 C                     0.009696
    137 C                     0.013747
    138 C                    -0.005029
    139 C                    -0.004396
    140 C                     0.018609
    141 C                     0.060916
    142 C                     0.027545
    143 C                    -0.020278
    144 C                    -0.033604
    145 C                    -0.014778
    146 C                     0.001529
    147 C                     0.010918
    148 C                     0.022652
    149 C                     0.016279
    150 C                    -0.037610
    151 C                    -0.022648
    152 C                     0.003409
    153 C                    -0.004673
    154 C                     0.017788
    155 C                    -0.017496
    156 C                    -0.034054
    157 C                    -0.013024
    158 C                     0.008209
    159 C                    -0.012801
    160 C                     0.031223
    161 C                     0.003421
    162 C                    -0.018554
    163 C                    -0.010951
    164 C                     0.002667
    165 C                     0.000550
    166 C                     0.037436
    167 C                    -0.016113
    168 C                     0.017638
    169 C                     0.014800
    170 C                    -0.006023
    171 C                    -0.023994
    172 C                     0.022913
    173 C                     0.009498
    174 C                    -0.002885
    175 C                     0.013042
    176 C                    -0.006621
  ----------------------------------------
  Sum of atomic charges =     0.000000

                    Cartesian Multipole Moments
 -----------------------------------------------------------------
    Charge (ESU x 10^10)
                 0.0000
    Dipole Moment (Debye)
         X      -2.5765      Y      -1.4682      Z      -1.2978
       Tot       3.2370
    Quadrupole Moments (Debye-Ang)
        XX    -760.3764     XY     -23.1677     YY    -801.3979
        XZ      38.2116     YZ     -20.1594     ZZ    -816.1410

 Total job time:  825.46s(wall), 6999.38s(cpu)
        *  Thank you very much for using Q-Chem.  Have a nice day.  *
