 Q-Chem 4.4, Q-Chem, Inc., Pleasanton, CA (2016)
 Q-Chem 4.4.2 for Intel X86 Linux

User input:
--------------------------------------------------------------
$comment
SP
$end

$rem
MEM_STATIC 5000
MEM_TOTAL 20000
JOBTYPE SP
EXCHANGE B3LYP
BASIS 6-31g(d,p)
$end

$molecule
0 1
O          -6.316000      6.198000    -14.394000
C          -5.888000      7.471000    -14.921000
H          -5.536000      8.073000    -14.074000
H          -6.702000      7.877000    -15.535000
H          -4.969000      7.401000    -15.516000
O          -7.251000      5.596000    -16.335000
C          -6.982000      5.287000    -15.165000
C          -7.415000      4.043000    -14.444000
H          -6.502000      3.482000    -14.209000
H          -8.023000      3.526000    -15.198000
C          -8.255000      4.272000    -13.132000
H          -8.879000      5.140000    -13.379000
H          -8.920000      3.413000    -12.979000
C          -7.404000      4.425000    -11.914000
H          -6.639000      3.652000    -11.771000
H          -6.860000      5.346000    -12.162000
C          -8.205000      4.747000    -10.648000
C          -8.604000      6.204000    -10.569000
C          -9.790000      6.623000    -11.238000
H         -10.437000      5.902000    -11.730000
C         -10.179000      7.930000    -11.270000
H         -11.003000      8.312000    -11.865000
C          -9.406000      8.922000    -10.669000
H          -9.662000      9.977000    -10.668000
C          -8.222000      8.572000     -9.966000
H          -7.563000      9.344000     -9.579000
C          -7.811000      7.197000     -9.948000
H          -6.844000      6.921000     -9.537000
C          -8.922000      4.083000     -5.284000
C         -11.180000      4.355000     -6.078000
C         -12.271000     -0.120000     -5.448000
C          -6.438000      0.449000     -7.733000
C         -11.745000     -1.047000     -8.801000
C          -9.829000      4.706000     -6.126000
C          -8.198000     -1.579000     -8.442000
C         -10.954000      1.411000     -4.114000
C         -11.444000      2.870000     -9.801000
C          -6.919000      0.411000     -9.021000
C          -9.190000      3.665000    -10.136000
C         -10.695000      1.875000    -10.460000
C          -8.721000     -0.135000    -10.315000
C          -9.526000     -2.045000     -8.407000
C         -10.651000      4.543000     -8.250000
C         -11.099000     -1.786000     -6.571000
C          -7.966000      3.967000     -9.380000
C          -7.023000      2.876000     -9.134000
C         -12.029000     -1.189000     -7.444000
C          -7.937000     -0.171000     -4.611000
C         -10.083000     -0.785000     -4.604000
C          -9.974000      0.398000     -3.890000
C         -10.624000      2.810000     -4.220000
C          -6.646000      2.864000     -7.790000
C         -10.601000      3.938000     -9.537000
C         -11.603000      3.363000     -5.141000
C          -7.767000     -0.636000     -9.411000
C         -11.711000      4.223000     -7.337000
C         -11.028000      0.525000    -10.209000
C          -6.533000      1.504000     -5.704000
C         -12.122000      1.124000     -4.814000
C          -9.368000      2.260000    -10.701000
C          -8.288000      2.159000     -4.099000
C         -10.089000     -0.492000    -10.136000
C         -12.443000      2.472000     -8.851000
C          -8.705000     -1.817000     -6.239000
C          -7.655000     -1.560000     -7.149000
C         -12.857000      1.160000     -8.699000
C          -6.334000      1.649000     -7.097000
C          -7.240000      1.608000     -9.687000
C          -6.926000      0.136000     -5.554000
C          -8.163000      4.544000     -7.934000
C         -13.004000      2.219000     -6.755000
C          -8.376000      1.231000    -10.400000
C         -12.102000      0.211000     -9.417000
C          -7.213000      2.530000     -5.011000
C         -12.778000     -0.164000     -6.764000
C          -9.287000      3.181000     -4.263000
C         -11.245000     -1.142000     -5.296000
C         -12.547000      3.183000     -7.681000
C         -13.221000      1.022000     -7.406000
C          -9.521000      4.858000     -7.462000
C          -7.297000      3.899000     -7.098000
C          -8.846000     -1.109000     -5.085000
C         -12.466000      2.307000     -5.471000
C         -10.490000     -1.473000     -9.268000
C          -6.787000     -0.522000     -6.765000
C          -9.835000     -2.203000     -7.040000
C          -7.632000      3.679000     -5.698000
C          -8.586000      0.812000     -3.872000
O         -19.789000     -1.743000     -7.490000
C         -20.585000     -2.980000     -7.485000
H         -20.679000     -3.368000     -6.463000
H         -20.153000     -3.789000     -8.086000
H         -21.599000     -2.707000     -7.805000
O         -21.439000     -0.640000     -6.236000
C         -20.307000     -0.613000     -6.804000
C         -19.519000      0.705000     -6.923000
H         -18.598000      0.415000     -6.401000
H         -19.995000      1.526000     -6.372000
C         -19.175000      1.141000     -8.378000
H         -18.520000      0.449000     -8.921000
H         -20.177000      1.134000     -8.823000
C         -18.495000      2.520000     -8.382000
H         -19.067000      3.272000     -7.824000
H         -17.529000      2.411000     -7.873000
C         -18.170000      3.131000     -9.769000
C         -18.352000      2.242000    -10.948000
C         -19.656000      2.110000    -11.463000
H         -20.468000      2.466000    -10.836000
C         -19.892000      1.300000    -12.596000
H         -20.903000      1.207000    -12.981000
C         -18.888000      0.666000    -13.299000
H         -19.207000      0.044000    -14.131000
C         -17.569000      0.882000    -12.875000
H         -16.777000      0.342000    -13.385000
C         -17.321000      1.670000    -11.714000
H         -16.274000      1.709000    -11.428000
C         -14.196000      6.391000    -11.898000
C         -16.186000      6.996000    -13.198000
C         -16.788000     11.041000    -11.270000
C         -15.100000      6.806000     -6.978000
C         -19.225000     10.006000     -9.059000
C         -15.364000      6.025000    -12.544000
C         -16.849000      8.871000     -6.523000
C         -14.687000      9.945000    -11.942000
C         -19.536000      6.457000    -11.049000
C         -16.436000      6.529000     -6.850000
C         -18.448000      4.630000     -9.976000
C         -19.835000      6.533000     -9.673000
C         -18.513000      7.218000     -7.208000
C         -17.588000      9.833000     -7.242000
C         -17.597000      5.543000    -12.198000
C         -17.119000     11.246000     -9.058000
C         -17.000000      4.175000     -9.704000
C         -16.323000      4.737000     -8.472000
C         -18.394000     10.983000     -9.674000
C         -13.553000      9.377000     -8.725000
C         -14.795000     10.928000     -9.753000
C         -14.069000     10.212000    -10.685000
C         -14.503000      8.669000    -12.489000
C         -15.005000      5.058000     -8.729000
C         -18.667000      5.381000    -11.298000
C         -15.667000      8.354000    -13.161000
C         -17.309000      7.544000     -6.565000
C         -17.520000      6.710000    -12.975000
C         -19.928000      7.886000     -9.091000
C         -13.489000      6.950000     -8.543000
C         -15.964000     10.406000    -12.180000
C         -19.063000      5.555000     -9.022000
C         -13.182000      8.022000    -10.631000
C         -19.265000      8.159000     -7.844000
C         -19.468000      7.602000    -11.787000
C         -15.407000     10.303000     -7.541000
C         -15.488000      9.113000     -6.800000
C         -19.609000      8.889000    -11.226000
C         -14.412000      6.064000     -7.945000
C         -17.046000      5.537000     -7.548000
C         -13.582000      8.186000     -7.931000
C         -15.920000      4.461000    -10.760000
C         -17.986000      9.067000    -12.754000
C         -18.375000      5.951000     -7.790000
C         -19.851000      9.050000     -9.854000
C         -13.257000      6.857000     -9.895000
C         -18.136000     10.854000    -11.062000
C         -13.811000      7.733000    -11.891000
C         -16.150000     11.308000    -10.005000
C         -18.457000      7.724000    -12.804000
C         -18.733000      9.830000    -11.830000
C         -16.250000      5.093000    -11.933000
C         -14.717000      4.857000    -10.089000
C         -14.394000     10.432000     -8.527000
C         -16.578000      9.400000    -12.936000
C         -18.807000      9.449000     -7.842000
C         -14.522000      8.119000     -6.907000
C         -16.738000     10.712000     -7.863000
C         -13.819000      5.830000    -10.685000
C         -13.336000      9.290000    -10.062000
$end

--------------------------------------------------------------

             Standard Nuclear Orientation (Angstroms)
    I     Atom           X                Y                Z
 ----------------------------------------------------------------
    1      O       3.6655673367    -7.2858314194     3.5119703306
    2      C       3.2364087598    -8.6592871930     3.4076431832
    3      H       3.3720797925    -8.9649711318     2.3627184488
    4      H       2.2293777242    -8.7354900721     3.8371890068
    5      H       3.9133189486    -9.3590112679     3.9132762669
    6      O       2.8349101438    -7.0786965152     5.5786618313
    7      C       3.4508869621    -6.5485571345     4.6425705984
    8      C       3.8986157523    -5.1176056789     4.5602124659
    9      H       4.9952028313    -5.1324900305     4.5321013586
   10      H       3.5252019481    -4.6930773904     5.5013855972
   11      C       3.3429934652    -4.2980603798     3.3358700396
   12      H       2.3184783710    -4.6742144688     3.2232382361
   13      H       3.2830547273    -3.2382697031     3.6129369438
   14      C       4.2015061219    -4.4135334876     2.1190068675
   15      H       5.2710680978    -4.2266386460     2.2749251085
   16      H       4.1101399993    -5.4873080321     1.9084327497
   17      C       3.6194228573    -3.7016167775     0.8932847657
   18      C       2.5305457823    -4.5058807007     0.2181571797
   19      C       1.1995278077    -4.4032448420     0.7157263023
   20      H       0.9541423190    -3.7059532302     1.5120204502
   21      C       0.1769486917    -5.1473632819     0.2046356069
   22      H      -0.8217993898    -5.1930428109     0.6281219118
   23      C       0.4031684926    -6.0703164766    -0.8150584659
   24      H      -0.3692284723    -6.6931895174    -1.2555060832
   25      C       1.7024767699    -6.2087491338    -1.3729109553
   26      H       1.9099438518    -6.9909291826    -2.0976079825
   27      C       2.7766292560    -5.4330280059    -0.8212560194
   28      H       3.8004888287    -5.6169874351    -1.1343957707
   29      C       4.4370421782    -0.7189599831    -3.5970089990
   30      C       2.2772028379     0.0463389037    -2.8537757664
   31      C       3.8860021357     4.1637184276    -1.4144159517
   32      C       7.9359587718    -0.4322019908     0.0153538737
   33      C       4.1536829954     3.2318999010     1.9676951036
   34      C       3.1930717053    -0.9896663210    -3.0502023228
   35      C       7.4276715647     1.7589662728     1.6443077576
   36      C       4.4171033626     2.8281181948    -3.3617498997
   37      C       2.1189452486    -0.1784935442     1.1537240659
   38      C       7.3070517921    -0.6363991142     1.2213922420
   39      C       3.4853593055    -2.1588863755     0.9647191488
   40      C       3.1359287651    -0.1343090167     2.1279413181
   41      C       5.8599702592     0.2716335090     2.7383588837
   42      C       6.5894256424     2.8605985464     1.9006573384
   43      C       2.1856861372    -1.2371562110    -1.0161049624
   44      C       5.5173669654     4.2763492211     0.2397400557
   45      C       4.4807937493    -2.7735761489     0.0746726608
   46      C       5.8864912669    -2.4154482069     0.2638943986
   47      C       4.2622147022     4.0254224128     0.8271636960
   48      C       7.6456928212     2.0837014906    -2.4268296473
   49      C       6.2073319619     3.7433753685    -2.0281296884
   50      C       5.8073987661     3.1000339994    -3.1888757078
   51      C       3.9229109417     1.5826917001    -3.8928089335
   52      C       6.4674130775    -2.0943484788    -0.9641258841
   53      C       2.2960828937    -1.3278528046     0.3996918747
   54      C       2.6414166053     1.3726632739    -3.2400062635
   55      C       7.0898492031     0.4512841373     2.0799847994
   56      C       1.6628921708    -0.0499390560    -1.6299216253
   57      C       3.6300560810     1.1337936119     2.5076042201
   58      C       7.6947075666    -0.3537268122    -2.2594055646
   59      C       3.4707901149     3.4221876125    -2.5321923283
   60      C       3.9759988211    -1.2569048955     2.0919441819
   61      C       6.2165233237     0.7862958337    -3.8719795042
   62      C       4.9590490814     1.3727599862     2.8206723863
   63      C       1.6951813477     1.0455299483     0.5363946189
   64      C       7.5700204540     3.0785441702    -0.2010520898
   65      C       8.1187219761     1.9439775397     0.4379582394
   66      C       2.0829292640     2.2929918777     0.9939252606
   67      C       7.5075251562    -1.1155600413    -1.0822701109
   68      C       6.2744230295    -1.5864689760     1.3236228460
   69      C       8.1291735953     0.9218576295    -1.7772265503
   70      C       4.2955399801    -2.5175035408    -1.4624551349
   71      C       1.7800315888     2.3646796563    -1.2027403628
   72      C       5.3998283850    -0.9500381091     2.2017082401
   73      C       3.0687587739     2.2772772632     2.0009223948
   74      C       6.7247028192    -0.4460977487    -3.2820899734
   75      C       3.2333822606     3.9676122128    -0.1789117424
   76      C       4.8175859139     0.5419822528    -4.1014702394
   77      C       5.3048090496     4.3881187633    -1.1758883214
   78      C       1.4608821286     1.0438514840    -0.8165052513
   79      C       2.1108906714     3.1037195777    -0.0855782161
   80      C       3.1031003362    -1.7957965418    -1.9344410491
   81      C       5.5162934598    -2.2100123873    -1.9916877231
   82      C       7.3037133907     3.0936641999    -1.5358602905
   83      C       2.4284509269     2.4987900280    -2.4305069408
   84      C       5.3219547421     2.6517227293     2.4903092781
   85      C       8.3560034567     0.8492206344    -0.4126467319
   86      C       6.6878620437     3.6837670116     0.7596762023
   87      C       5.6328291260    -1.3141801253    -3.1338475179
   88      C       6.7331500161     2.0231037501    -3.4743049657
   89      O      -1.8403116674     8.7866228478     1.6125135073
   90      C      -1.8358837699    10.1375155773     2.1946468486
   91      H      -1.5057691138    10.8720325387     1.4494132295
   92      H      -1.1675286012    10.2477842829     3.0568812605
   93      H      -2.8789531146    10.3857071603     2.4302997297
   94      O      -3.5396234786     9.4043625199     0.1150616498
   95      C      -2.7337087433     8.5244900818     0.5406235513
   96      C      -2.8102656794     7.0746437252     0.0265091887
   97      H      -1.7950036150     6.9701682725    -0.3774126110
   98      H      -3.5310624037     6.9609263853    -0.7930873271
   99      C      -3.0452325594     5.9950891908     1.1241473680
  100      H      -2.2441981771     5.9171267140     1.8691331199
  101      H      -3.9538778381     6.3914193222     1.5925106720
  102      C      -3.2205841958     4.6066819046     0.4872533336
  103      H      -3.9822924542     4.6000408635    -0.3025621041
  104      H      -2.2672216701     4.3400544517     0.0138320666
  105      C      -3.5510236899     3.4370710926     1.4493007800
  106      C      -3.4591529022     3.7260318461     2.9058540544
  107      C      -4.5636133275     4.3562770386     3.5108525389
  108      H      -5.2984536537     4.8000636468     2.8458170952
  109      C      -4.5492287847     4.6361763054     4.8953865708
  110      H      -5.4076913688     5.1235923745     5.3475619431
  111      C      -3.5232113630     4.2567056881     5.7364997029
  112      H      -3.6181155421     4.5641912760     6.7744374708
  113      C      -2.4690219667     3.5213375624     5.1760432494
  114      H      -1.6296618440     3.2684102016     5.8167197159
  115      C      -2.4563079401     3.2616154514     3.7750608160
  116      H      -1.5589086141     2.7545193982     3.4329292002
  117      C      -2.4339375471    -2.0075749330     1.6960095279
  118      C      -4.6499346608    -1.8333471781     2.7328925885
  119      C      -6.9207503758    -3.6839667954    -0.7109738462
  120      C      -2.4321553502     0.1220174255    -2.8493919076
  121      C      -7.9412847870    -0.6929799162    -2.0934433772
  122      C      -3.3275658665    -1.3349318020     2.5111632834
  123      C      -4.8823237940    -0.2164661239    -4.0378171193
  124      C      -4.7394837567    -4.3338004849     0.2307230859
  125      C      -6.6984376172     1.2873928346     1.2510560891
  126      C      -3.3593599593     1.1269687268    -2.7578851053
  127      C      -4.6188659195     2.4223002795     1.0053557725
  128      C      -6.7146159258     1.9381766293     0.0001477332
  129      C      -5.5065662014     1.6570857336    -2.5988401029
  130      C      -6.1443445262    -0.7805280481    -3.7591348324
  131      C      -4.8412169543     0.4101731511     2.5535671395
  132      C      -6.8676571927    -2.7824559779    -2.7674245166
  133      C      -3.1310112242     2.0430406590     0.8633573707
  134      C      -2.6308067600     1.7335666127    -0.5316402310
  135      C      -7.8983306016    -2.1126984898    -2.0168332621
  136      C      -2.8711199960    -3.3034448431    -2.4905363852
  137      C      -4.9216461345    -4.1331100270    -2.1559512128
  138      C      -4.1258363542    -4.3855927559    -1.0553626134
  139      C      -4.0159840640    -3.7227914086     1.2624483902
  140      C      -1.7672077605     0.6563635079    -0.5249889806
  141      C      -5.4589412878     1.4829893178     1.8837715584
  142      C      -4.9385895530    -3.0996677585     2.0786720288
  143      C      -4.5625881517     0.9920738458    -3.3963397146
  144      C      -5.5520276973    -0.7858680671     2.7427244600
  145      C      -7.3973257422     1.2334952808    -1.1022648500
  146      C      -1.4901649490    -1.5025363474    -1.6089238012
  147      C      -6.0830732059    -4.0420575488     0.3284341446
  148      C      -5.4302720639     2.4687098125    -0.2126065520
  149      C      -2.2187084219    -3.2712366981    -0.2146137649
  150      C      -6.7517923030     1.1480546237    -2.3848768229
  151      C      -7.3972762684     0.1276678548     1.4152374244
  152      C      -4.6578747263    -2.4692191992    -3.8352382512
  153      C      -3.9451841739    -1.2682489005    -3.9818142322
  154      C      -8.0884820245    -0.5101253626     0.3633698402
  155      C      -1.6606624915    -0.1037892789    -1.7036139618
  156      C      -3.4704531878     1.9201134787    -1.6615513527
  157      C      -2.1046701723    -2.1103692328    -2.6877247624
  158      C      -2.6017518161     0.8134276631     1.6191803389
  159      C      -7.1474468142    -2.1517327423     1.5550807717
  160      C      -4.8326087162     2.2738158872    -1.5365396624
  161      C      -8.1037871606     0.0451053186    -0.9244009637
  162      C      -1.5153747417    -2.0937932276    -0.3678932746
  163      C      -7.8900395844    -2.7064851593    -0.7295502124
  164      C      -2.8302852976    -3.1984056102     1.0843979201
  165      C      -6.2890653353    -3.7439127882    -2.0055542753
  166      C      -6.8298186771    -0.9284726267     2.2113863836
  167      C      -7.9871472592    -1.9247300506     0.4427287857
  168      C      -3.4405503501     0.0814978735     2.4222673843
  169      C      -1.6903720408     0.1089838287     0.7662959449
  170      C      -4.0864054415    -3.5194721511    -3.0701254533
  171      C      -6.2014036271    -3.2591254489     1.4832428900
  172      C      -7.0613321307    -0.0480599817    -2.9742518698
  173      C      -2.6415904372    -1.1315519102    -3.5185666716
  174      C      -6.0347379245    -2.1419990288    -3.6359879219
  175      C      -1.5863946539    -1.3381859653     0.8231931359
  176      C      -2.9089257864    -3.8847494564    -1.2646152340
 ----------------------------------------------------------------

    9   -5804.2251657588      9.75E-06 Convergence criterion met
 Total energy in the final basis set = -5804.2251657588

                    Orbital Energies (a.u.)
 --------------------------------------------------------------

 Alpha MOs
 -- Occupied --
-19.192 -19.189 -19.136 -19.131 -10.326 -10.318 -10.246 -10.245
-10.243 -10.242 -10.241 -10.240 -10.240 -10.235 -10.231 -10.230
-10.230 -10.229 -10.229 -10.228 -10.228 -10.227 -10.226 -10.226
-10.225 -10.225 -10.224 -10.224 -10.224 -10.224 -10.224 -10.223
-10.223 -10.223 -10.223 -10.223 -10.223 -10.223 -10.222 -10.222
-10.222 -10.222 -10.222 -10.221 -10.221 -10.221 -10.221 -10.221
-10.220 -10.220 -10.220 -10.220 -10.220 -10.220 -10.220 -10.220
-10.219 -10.219 -10.219 -10.219 -10.219 -10.218 -10.218 -10.218
-10.218 -10.218 -10.218 -10.218 -10.217 -10.217 -10.217 -10.217
-10.216 -10.216 -10.216 -10.216 -10.216 -10.215 -10.215 -10.215
-10.215 -10.215 -10.215 -10.215 -10.214 -10.214 -10.214 -10.214
-10.214 -10.214 -10.214 -10.213 -10.213 -10.213 -10.213 -10.213
-10.213 -10.213 -10.213 -10.213 -10.213 -10.213 -10.212 -10.212
-10.212 -10.212 -10.211 -10.211 -10.211 -10.210 -10.210 -10.210
-10.210 -10.210 -10.210 -10.210 -10.209 -10.209 -10.209 -10.209
-10.209 -10.209 -10.209 -10.209 -10.207 -10.207 -10.207 -10.207
-10.206 -10.206 -10.205 -10.205 -10.204 -10.204 -10.203 -10.203
-10.202 -10.202 -10.200 -10.200 -10.200 -10.200 -10.198 -10.197
-10.197 -10.197 -10.196 -10.192  -1.089  -1.065  -0.994  -0.987
 -0.986  -0.985  -0.969  -0.968  -0.964  -0.963  -0.963  -0.962
 -0.935  -0.934  -0.932  -0.929  -0.927  -0.925  -0.925  -0.924
 -0.923  -0.920  -0.900  -0.897  -0.893  -0.891  -0.884  -0.884
 -0.874  -0.874  -0.852  -0.851  -0.846  -0.845  -0.844  -0.842
 -0.837  -0.837  -0.824  -0.822  -0.811  -0.806  -0.801  -0.801
 -0.800  -0.798  -0.796  -0.795  -0.794  -0.793  -0.787  -0.784
 -0.775  -0.773  -0.772  -0.770  -0.768  -0.767  -0.765  -0.763
 -0.749  -0.746  -0.743  -0.741  -0.734  -0.729  -0.721  -0.719
 -0.718  -0.718  -0.715  -0.714  -0.713  -0.712  -0.711  -0.711
 -0.708  -0.707  -0.707  -0.706  -0.704  -0.700  -0.675  -0.674
 -0.662  -0.661  -0.657  -0.656  -0.650  -0.649  -0.633  -0.633
 -0.629  -0.627  -0.627  -0.625  -0.624  -0.622  -0.621  -0.619
 -0.618  -0.617  -0.615  -0.615  -0.615  -0.612  -0.611  -0.609
 -0.607  -0.606  -0.604  -0.603  -0.565  -0.565  -0.563  -0.563
 -0.562  -0.561  -0.560  -0.560  -0.558  -0.558  -0.553  -0.552
 -0.537  -0.536  -0.535  -0.534  -0.532  -0.529  -0.528  -0.526
 -0.525  -0.523  -0.521  -0.519  -0.519  -0.518  -0.517  -0.514
 -0.508  -0.506  -0.503  -0.495  -0.493  -0.490  -0.490  -0.488
 -0.486  -0.485  -0.484  -0.484  -0.482  -0.478  -0.477  -0.475
 -0.473  -0.471  -0.471  -0.470  -0.469  -0.468  -0.467  -0.466
 -0.465  -0.465  -0.464  -0.463  -0.463  -0.461  -0.459  -0.458
 -0.457  -0.454  -0.453  -0.451  -0.450  -0.449  -0.447  -0.446
 -0.445  -0.444  -0.441  -0.441  -0.438  -0.438  -0.436  -0.434
 -0.432  -0.431  -0.430  -0.429  -0.428  -0.427  -0.426  -0.426
 -0.426  -0.424  -0.424  -0.422  -0.421  -0.420  -0.420  -0.419
 -0.418  -0.417  -0.417  -0.417  -0.416  -0.415  -0.414  -0.413
 -0.412  -0.412  -0.411  -0.407  -0.405  -0.402  -0.401  -0.400
 -0.397  -0.396  -0.394  -0.392  -0.389  -0.389  -0.387  -0.386
 -0.384  -0.382  -0.375  -0.374  -0.373  -0.370  -0.369  -0.366
 -0.365  -0.364  -0.364  -0.363  -0.362  -0.361  -0.360  -0.360
 -0.359  -0.357  -0.357  -0.355  -0.354  -0.353  -0.352  -0.352
 -0.351  -0.348  -0.348  -0.347  -0.347  -0.346  -0.346  -0.345
 -0.342  -0.341  -0.340  -0.339  -0.337  -0.336  -0.335  -0.335
 -0.334  -0.333  -0.331  -0.329  -0.329  -0.328  -0.326  -0.325
 -0.308  -0.302  -0.294  -0.293  -0.290  -0.286  -0.274  -0.272
 -0.272  -0.271  -0.270  -0.268  -0.268  -0.266  -0.265  -0.264
 -0.264  -0.263  -0.262  -0.260  -0.259  -0.257  -0.254  -0.253
 -0.252  -0.248  -0.247  -0.244  -0.226  -0.220  -0.217  -0.215
 -0.213  -0.212  -0.209  -0.204  -0.199  -0.197

          Ground-State Mulliken Net Atomic Charges

     Atom                 Charge (a.u.)
  ----------------------------------------
      1 O                    -0.463020
      2 C                    -0.077035
      3 H                     0.122706
      4 H                     0.139538
      5 H                     0.121127
      6 O                    -0.482808
      7 C                     0.583761
      8 C                    -0.261004
      9 H                     0.130466
     10 H                     0.138892
     11 C                    -0.185017
     12 H                     0.118005
     13 H                     0.112118
     14 C                    -0.193251
     15 H                     0.104569
     16 H                     0.138265
     17 C                     0.006087
     18 C                     0.091455
     19 C                    -0.112101
     20 H                     0.093022
     21 C                    -0.075480
     22 H                     0.095829
     23 C                    -0.092292
     24 H                     0.090545
     25 C                    -0.094057
     26 H                     0.092064
     27 C                    -0.114594
     28 H                     0.089342
     29 C                     0.028503
     30 C                    -0.018398
     31 C                    -0.019513
     32 C                     0.002541
     33 C                    -0.042529
     34 C                     0.012840
     35 C                     0.026990
     36 C                     0.005427
     37 C                     0.008715
     38 C                    -0.005699
     39 C                    -0.073000
     40 C                    -0.010673
     41 C                    -0.030313
     42 C                     0.003486
     43 C                     0.002396
     44 C                     0.005569
     45 C                    -0.101141
     46 C                     0.019402
     47 C                     0.016386
     48 C                    -0.004783
     49 C                     0.021148
     50 C                    -0.028527
     51 C                    -0.018078
     52 C                     0.012737
     53 C                     0.024343
     54 C                     0.002753
     55 C                    -0.008397
     56 C                     0.006997
     57 C                     0.039849
     58 C                    -0.026274
     59 C                     0.014657
     60 C                    -0.004157
     61 C                     0.016331
     62 C                     0.008096
     63 C                     0.001888
     64 C                    -0.008723
     65 C                    -0.034760
     66 C                     0.004656
     67 C                     0.011461
     68 C                     0.029879
     69 C                     0.001393
     70 C                     0.019958
     71 C                    -0.016276
     72 C                    -0.004708
     73 C                    -0.013549
     74 C                    -0.014307
     75 C                     0.011227
     76 C                    -0.016504
     77 C                    -0.030774
     78 C                     0.022102
     79 C                    -0.012830
     80 C                     0.002394
     81 C                    -0.002784
     82 C                     0.066334
     83 C                     0.003442
     84 C                     0.005602
     85 C                     0.003139
     86 C                    -0.018273
     87 C                    -0.000593
     88 C                    -0.015879
     89 O                    -0.489188
     90 C                    -0.079271
     91 H                     0.129007
     92 H                     0.126836
     93 H                     0.134888
     94 O                    -0.482205
     95 C                     0.579834
     96 C                    -0.240127
     97 H                     0.127942
     98 H                     0.140871
     99 C                    -0.191308
    100 H                     0.131639
    101 H                     0.115106
    102 C                    -0.184231
    103 H                     0.111153
    104 H                     0.120235
    105 C                     0.005214
    106 C                     0.083694
    107 C                    -0.100728
    108 H                     0.091195
    109 C                    -0.088941
    110 H                     0.086360
    111 C                    -0.069289
    112 H                     0.093870
    113 C                    -0.098881
    114 H                     0.093918
    115 C                    -0.126832
    116 H                     0.092689
    117 C                     0.019300
    118 C                    -0.007350
    119 C                     0.012431
    120 C                    -0.019020
    121 C                    -0.016127
    122 C                    -0.014820
    123 C                    -0.027283
    124 C                    -0.004607
    125 C                     0.022011
    126 C                     0.031108
    127 C                    -0.066341
    128 C                    -0.025155
    129 C                    -0.010653
    130 C                     0.004732
    131 C                     0.010615
    132 C                     0.002169
    133 C                    -0.093020
    134 C                     0.006571
    135 C                    -0.034020
    136 C                     0.021815
    137 C                     0.018180
    138 C                    -0.016058
    139 C                     0.033360
    140 C                     0.035180
    141 C                     0.033789
    142 C                    -0.026232
    143 C                    -0.009756
    144 C                     0.020110
    145 C                    -0.018661
    146 C                     0.006499
    147 C                     0.009872
    148 C                     0.033623
    149 C                    -0.033929
    150 C                     0.000689
    151 C                     0.011214
    152 C                    -0.023651
    153 C                     0.036169
    154 C                    -0.005957
    155 C                    -0.000290
    156 C                     0.009180
    157 C                     0.004577
    158 C                     0.013488
    159 C                     0.006766
    160 C                    -0.021438
    161 C                     0.016387
    162 C                     0.031797
    163 C                     0.015756
    164 C                    -0.001364
    165 C                     0.001520
    166 C                    -0.023263
    167 C                    -0.010918
    168 C                     0.014638
    169 C                    -0.017231
    170 C                    -0.036554
    171 C                    -0.028359
    172 C                     0.024128
    173 C                    -0.032131
    174 C                     0.018622
    175 C                    -0.030886
    176 C                     0.016997
  ----------------------------------------
  Sum of atomic charges =     0.000000

                    Cartesian Multipole Moments
 -----------------------------------------------------------------
    Charge (ESU x 10^10)
                 0.0000
    Dipole Moment (Debye)
         X       1.9539      Y      -0.8140      Z       0.7726
       Tot       2.2532
    Quadrupole Moments (Debye-Ang)
        XX    -815.8197     XY      -2.9385     YY    -798.6313
        XZ      -6.9474     YZ      36.7989     ZZ    -815.5220

 Total job time:  855.04s(wall), 7293.07s(cpu)
        *  Thank you very much for using Q-Chem.  Have a nice day.  *
