 Q-Chem 4.4, Q-Chem, Inc., Pleasanton, CA (2016)
 Q-Chem 4.4.2 for Intel X86 Linux

User input:
--------------------------------------------------------------
$comment
SP
$end

$rem
MEM_STATIC 5000
MEM_TOTAL 20000
JOBTYPE SP
EXCHANGE B3LYP
BASIS 6-31g(d,p)
$end

$molecule
0 1
O          -9.110000     33.346000    -13.472000
C          -8.065000     33.719000    -14.353000
H          -8.282000     33.494000    -15.405000
H          -7.133000     33.241000    -14.030000
H          -7.714000     34.757000    -14.303000
O          -7.977000     34.032000    -11.619000
C          -8.986000     33.520000    -12.150000
C         -10.190000     33.064000    -11.302000
H         -11.011000     33.775000    -11.459000
H          -9.902000     33.233000    -10.257000
C         -10.724000     31.676000    -11.607000
H         -11.710000     31.477000    -11.171000
H         -10.937000     31.683000    -12.683000
C          -9.885000     30.527000    -11.135000
H          -8.943000     30.545000    -11.696000
H          -9.534000     30.691000    -10.109000
C         -10.543000     29.061000    -11.315000
C         -10.968000     28.763000    -12.735000
C          -9.947000     28.257000    -13.427000
H          -8.948000     28.167000    -13.011000
C         -10.120000     27.794000    -14.774000
H          -9.251000     27.381000    -15.276000
C         -11.355000     28.076000    -15.404000
H         -11.461000     27.854000    -16.461000
C         -12.444000     28.597000    -14.684000
H         -13.419000     28.721000    -15.146000
C         -12.266000     28.853000    -13.292000
H         -13.062000     29.162000    -12.621000
C         -13.820000     25.238000     -9.107000
C         -11.985000     23.935000     -9.957000
C         -10.214000     22.865000     -5.958000
C         -12.136000     28.913000     -6.041000
C          -7.753000     25.243000     -6.207000
C         -12.815000     25.022000    -10.052000
C          -9.815000     27.970000     -4.751000
C         -12.532000     22.944000     -6.582000
C          -8.578000     26.001000    -10.024000
C         -10.909000     29.261000     -6.530000
C          -9.885000     27.968000    -10.391000
C          -8.152000     26.994000     -9.181000
C          -8.882000     28.419000     -6.907000
C          -8.960000     26.836000     -4.707000
C         -10.863000     25.598000    -10.905000
C          -9.480000     24.507000     -4.565000
C         -11.323000     28.466000    -10.158000
C         -11.681000     29.101000     -8.879000
C          -8.509000     24.233000     -5.564000
C         -13.296000     25.881000     -4.822000
C         -11.811000     24.098000     -4.586000
C         -12.843000     23.718000     -5.434000
C         -13.131000     23.240000     -7.848000
C         -12.904000     28.629000     -8.421000
C          -9.745000     26.477000    -10.672000
C         -12.164000     23.054000     -8.890000
C          -9.766000     28.698000     -5.931000
C         -10.737000     24.282000    -10.523000
C          -7.590000     26.648000     -7.963000
C         -13.855000     27.515000     -6.429000
C         -11.264000     22.474000     -6.818000
C          -8.985000     28.117000     -9.293000
C         -14.306000     25.146000     -6.862000
C          -7.964000     27.395000     -6.817000
C          -8.513000     24.608000     -9.665000
C         -11.000000     26.225000     -3.871000
C         -11.084000     27.579000     -4.276000
C          -7.897000     24.268000     -8.394000
C         -13.129000     28.541000     -6.996000
C         -10.666000     29.355000     -7.940000
C         -13.312000     27.172000     -5.197000
C         -12.388000     27.430000    -10.225000
C          -9.725000     22.954000     -8.748000
C          -9.351000     28.835000     -8.130000
C          -7.477000     25.300000     -7.539000
C         -14.360000     26.509000     -7.244000
C          -8.964000     23.235000     -6.442000
C         -13.965000     24.382000     -7.999000
C         -10.505000     23.656000     -4.800000
C          -9.630000     23.767000     -9.912000
C          -8.695000     23.238000     -7.875000
C         -12.177000     26.108000    -10.664000
C         -13.304000     27.614000     -9.204000
C         -12.108000     25.390000     -4.150000
C         -10.994000     22.512000     -8.240000
C          -8.050000     26.538000     -5.760000
C         -12.239000     28.061000     -4.948000
C          -9.647000     25.801000     -4.054000
C         -14.051000     26.556000     -8.617000
C         -13.717000     24.875000     -5.632000
O         -10.618000     14.819000     -1.190000
C          -9.819000     13.711000     -1.609000
H          -9.554000     13.155000     -0.702000
H          -8.965000     14.018000     -2.225000
H         -10.271000     12.885000     -2.172000
O         -12.485000     13.561000     -0.714000
C         -11.928000     14.634000     -0.842000
C         -12.789000     15.875000     -0.771000
H         -13.842000     15.646000     -0.975000
H         -12.485000     16.505000     -1.617000
C         -12.496000     16.793000      0.476000
H         -12.688000     16.226000      1.395000
H         -11.437000     17.082000      0.482000
C         -13.344000     18.053000      0.497000
H         -13.229000     18.691000     -0.388000
H         -14.394000     17.781000      0.333000
C         -13.263000     19.011000      1.768000
C         -14.132000     18.454000      2.911000
C         -13.510000     17.679000      3.900000
H         -12.458000     17.411000      3.884000
C         -14.289000     16.970000      4.839000
H         -13.838000     16.242000      5.507000
C         -15.683000     17.100000      4.875000
H         -16.327000     16.491000      5.503000
C         -16.235000     18.034000      4.049000
H         -17.314000     18.141000      4.110000
C         -15.535000     18.590000      3.004000
H         -16.122000     19.268000      2.391000
C         -12.880000     24.314000      3.331000
C         -11.407000     23.102000      4.883000
C          -7.423000     24.745000      3.249000
C         -11.549000     23.221000     -1.417000
C          -6.700000     21.799000      1.374000
C         -12.527000     23.174000      4.133000
C          -8.743000     22.772000     -1.555000
C          -9.589000     25.837000      3.567000
C          -9.830000     19.847000      3.235000
C         -10.980000     21.900000     -1.395000
C         -11.874000     19.580000      2.041000
C          -9.497000     19.612000      1.958000
C          -9.381000     20.576000     -0.629000
C          -7.557000     22.748000     -0.764000
C         -11.732000     20.987000      4.107000
C          -6.843000     24.233000      1.088000
C         -13.006000     20.450000      1.525000
C         -12.789000     21.190000      0.119000
C          -6.545000     23.107000      1.925000
C         -10.319000     26.094000      0.161000
C          -8.448000     25.980000      1.436000
C          -9.541000     26.325000      2.264000
C         -10.807000     25.398000      4.102000
C         -13.175000     22.524000      0.197000
C         -11.200000     19.903000      3.384000
C         -10.535000     24.268000      4.930000
C          -9.582000     21.650000     -1.488000
C         -10.875000     21.827000      4.847000
C          -8.279000     20.105000      1.410000
C         -12.378000     24.820000     -0.136000
C          -8.586000     25.014000      4.026000
C         -10.690000     19.481000      1.131000
C         -11.880000     25.879000      1.998000
C          -8.196000     20.573000      0.184000
C          -9.020000     20.641000      4.066000
C          -8.404000     24.830000     -0.695000
C          -9.285000     24.055000     -1.496000
C          -7.785000     21.183000      3.543000
C         -12.619000     23.546000     -0.611000
C         -11.638000     20.909000     -0.632000
C         -11.189000     25.352000     -0.631000
C         -13.352000     21.669000      2.354000
C          -8.647000     22.738000      4.873000
C         -10.628000     20.123000     -0.135000
C          -7.387000     20.855000      2.208000
C         -12.721000     25.080000      1.248000
C          -6.967000     23.437000      3.197000
C         -11.971000     25.419000      3.261000
C          -7.339000     25.241000      1.910000
C          -9.536000     21.670000      4.870000
C          -7.530000     22.427000      4.025000
C         -12.731000     21.861000      3.610000
C         -13.510000     22.807000      1.558000
C          -8.926000     25.844000      0.154000
C          -9.174000     24.013000      4.789000
C          -7.262000     21.587000      0.076000
C         -10.679000     24.330000     -1.420000
C          -7.333000     24.022000     -0.223000
C         -13.348000     24.077000      2.028000
C         -10.698000     26.409000      1.502000
$end

--------------------------------------------------------------

             Standard Nuclear Orientation (Angstroms)
    I     Atom           X                Y                Z
 ----------------------------------------------------------------
    1      O     -13.3203924021     2.6679180675    -0.0672398823
    2      C     -14.3123415911     2.8984231348    -1.0522369485
    3      H     -15.0771334719     2.1123133794    -1.0915158433
    4      H     -13.8289556929     3.0295706146    -2.0272115184
    5      H     -14.8323418719     3.8637793129    -1.0233898093
    6      O     -12.1600040053     4.5544102121    -0.5987849482
    7      C     -12.2952869610     3.5162377662     0.0839173987
    8      C     -11.2804124058     3.1458847614     1.1837011452
    9      H     -11.7505879327     3.3213162112     2.1595954941
   10      H     -10.4953183832     3.9107331697     1.1371792349
   11      C     -10.7843063459     1.7111905296     1.1676936923
   12      H     -10.2644465199     1.4138799490     2.0859775155
   13      H     -11.6917918768     1.0957923503     1.1985010304
   14      C      -9.8169370281     1.3588726984     0.0782099848
   15      H     -10.3456277411     1.4355087307    -0.8794026971
   16      H      -9.0482128648     2.1333381542    -0.0315142997
   17      C      -9.1679933376    -0.1192267719     0.1710218499
   18      C     -10.1973011668    -1.2243168761     0.2426476445
   19      C     -10.5649513881    -1.5943806259    -0.9842293404
   20      H     -10.2099249321    -1.0884548638    -1.8770632212
   21      C     -11.4569050132    -2.6991900654    -1.1904375679
   22      H     -11.7052798101    -2.9564760177    -2.2150584241
   23      C     -12.0839359289    -3.2495431241    -0.0478121956
   24      H     -12.8596111584    -3.9951137613    -0.1900140354
   25      C     -11.6973115620    -2.8785740295     1.2516744453
   26      H     -12.1103844008    -3.3723217505     2.1263338177
   27      C     -10.6584069610    -1.9110403406     1.3911010958
   28      H     -10.2151302809    -1.6230276462     2.3397277203
   29      C      -5.1314699545    -3.1959110206     2.2852155522
   30      C      -5.2507815947    -3.9700858475     0.0105832589
   31      C      -1.3731078715    -2.1397483062    -1.3630444129
   32      C      -4.5399251706     1.8409818524     2.4322596062
   33      C      -2.9485618120     0.4962163958    -2.8937439168
   34      C      -5.8658538753    -3.4727705114     1.1303410658
   35      C      -3.0540793676     2.6059079935     0.1634404754
   36      C      -1.8388159280    -3.2430132654     0.7189410423
   37      C      -6.5505848625    -1.1392002373    -2.4747923923
   38      C      -5.1942059502     2.3164311134     1.3315240967
   39      C      -7.8381141235    -0.2661726133    -0.6603728791
   40      C      -6.3770678495     0.2184837981    -2.4058003192
   41      C      -5.1633903425     2.2116224002    -0.8928606569
   42      C      -2.4587017726     2.0552993131    -1.0032953990
   43      C      -6.9822388122    -2.7367626519    -0.6251264227
   44      C      -1.0883507206     0.1156471925    -1.2765949511
   45      C      -7.8369309233    -0.2868443706     0.8790128030
   46      C      -7.0690556363     0.7233377359     1.6254239868
   47      C      -1.8364963062    -0.2462592375    -2.4277769171
   48      C      -1.8559550951    -0.3397081456     2.6881517041
   49      C      -0.7846219272    -1.0696909217     0.7492395375
   50      C      -1.2574759953    -2.1730142936     1.4475335780
   51      C      -3.0421590250    -3.8699317150     1.1751335987
   52      C      -6.3759962953     0.1367907214     2.6760944154
   53      C      -7.2981274792    -1.5220432314    -1.3333107770
   54      C      -3.8729560072    -4.1862068343     0.0503245379
   55      C      -4.4413688828     2.5977485525     0.1755328129
   56      C      -5.9708649320    -3.5265543560    -1.1221253548
   57      C      -5.1864673481     0.7685347488    -2.8518926837
   58      C      -4.0550113327    -0.0780665891     3.5009132680
   59      C      -1.8495384575    -3.2643256333    -0.6535934055
   60      C      -7.0253882409     0.7342643479    -1.2738934791
   61      C      -3.1549138833    -2.3137084414     3.0595731612
   62      C      -4.5897399490     1.7933103844    -2.0741058826
   63      C      -5.5154210185    -2.0231582041    -2.9444828532
   64      C      -1.3343131433     1.2510783111     0.8195583499
   65      C      -2.3871329197     2.0743786908     1.2866172362
   66      C      -4.2854441430    -1.4218759061    -3.4303979528
   67      C      -5.1096097745     0.7042463219     3.0801406028
   68      C      -6.4518367619     1.7678342751     0.9151213465
   69      C      -2.8532384068     0.4744216439     3.0756832280
   70      C      -7.2998740959    -1.5211155981     1.5115904671
   71      C      -3.8109184159    -3.2980958544    -2.2270193589
   72      C      -6.3993257460     1.7478805964    -0.5105607513
   73      C      -4.1219972712    -0.0298543229    -3.3408991718
   74      C      -4.1943123354    -1.4607672811     3.5053884089
   75      C      -2.0357738342    -1.6361433691    -2.4770066606
   76      C      -3.7335467643    -3.3593378034     2.3081816345
   77      C      -0.7931392280    -1.0440804776    -0.6457757172
   78      C      -5.2314687091    -3.2148685887    -2.2267249239
   79      C      -3.2662096503    -2.2579373905    -2.9516211329
   80      C      -6.9862326770    -2.6985343524     0.8043139035
   81      C      -6.4881773571    -1.1982889365     2.5850355523
   82      C      -1.0810972463     0.0512183800     1.5259207607
   83      C      -3.0891066535    -3.8528455542    -1.1157005252
   84      C      -3.2372776317     1.6250191886    -2.1143271924
   85      C      -3.1587567969     1.6885218199     2.4151756384
   86      C      -1.3281300726     1.3236356995    -0.6082270664
   87      C      -5.3987957805    -2.0032306037     3.0177695269
   88      C      -1.9948396638    -1.6890746351     2.6153632862
   89      O       6.9290601490    -6.1723471304    -2.9274321155
   90      C       7.1202221790    -6.9567127593    -4.1063526550
   91      H       8.1708785143    -6.8366276713    -4.3956809059
   92      H       6.3967049026    -6.7141925326    -4.8942153908
   93      H       7.0976894694    -8.0521599290    -4.0512457097
   94      O       8.0805403039    -7.6004429934    -1.5383804035
   95      C       7.3816060422    -6.6219487393    -1.7172711313
   96      C       6.8278054179    -5.9318945449    -0.4910684248
   97      H       6.8231616294    -6.6000507152     0.3786509365
   98      H       5.7640466382    -5.7546507169    -0.6960900920
   99      C       7.3898578629    -4.4778432013    -0.2599542991
  100      H       8.4773217672    -4.5279366911    -0.1264368873
  101      H       7.1945422480    -3.8604573479    -1.1463653317
  102      C       6.7830129684    -3.7933887293     0.9526488304
  103      H       5.6905462898    -3.6988906278     0.9197753588
  104      H       6.8348290851    -4.4738805819     1.8115003476
  105      C       7.3540455752    -2.3737285103     1.3979045149
  106      C       8.6572735892    -2.5513501242     2.1990950702
  107      C       9.8765675157    -2.4301402899     1.5177284312
  108      H       9.9561242058    -2.2618154296     0.4480922900
  109      C      11.0825204708    -2.7964628753     2.1523371559
  110      H      12.0123407734    -2.8631526128     1.5950260366
  111      C      11.1081806048    -3.1880212455     3.4967536094
  112      H      11.9913014486    -3.5835258835     3.9903877416
  113      C       9.9403758359    -3.0770490491     4.1919177580
  114      H       9.9850120362    -3.3584302995     5.2398887507
  115      C       8.7285774092    -2.9127686655     3.5628569275
  116      H       7.8779721674    -2.9073071369     4.2384773049
  117      C       5.8718056502     2.7003996176     3.0615317407
  118      C       7.7603494252     3.0761511536     1.5319598420
  119      C       5.3265748746     4.9976343771    -1.8777769013
  120      C       2.3555657442    -0.0606633300     0.7115738000
  121      C       5.2526874042     2.0142483498    -3.8300111225
  122      C       7.1367527200     2.3432998707     2.4786066328
  123      C       2.3468905148     0.5480275921    -2.0675809460
  124      C       5.1203926347     5.2171167059     0.5500740808
  125      C       8.0029307448     0.2789825986    -1.2813763232
  126      C       3.0437463445    -0.8734514257    -0.2554158446
  127      C       7.2229634290    -1.2817481170     0.3405458759
  128      C       7.0273140861    -0.4266885201    -1.8704802254
  129      C       4.3182068556    -0.9354917144    -2.0632970377
  130      C       2.9770180694     1.3632897198    -3.0530452670
  131      C       8.2297845955     0.9122639063     1.0044670913
  132      C       3.7350232671     3.7201466280    -2.9282308658
  133      C       6.3784715956    -1.2771889467     1.6020500404
  134      C       4.7853370138    -1.3283392304     1.4264628745
  135      C       5.0248213228     3.3714699269    -3.4498576801
  136      C       2.1267226852     3.4322350922     0.7779399595
  137      C       3.1839189807     4.6725436095    -0.7978876880
  138      C       3.7550707488     4.9589452379     0.4634678388
  139      C       5.8612232215     4.6970383621     1.6192600131
  140      C       4.1668705042    -0.3878223091     2.2435082204
  141      C       8.1623894552    -0.1046190090     0.0337889616
  142      C       7.1466712056     4.3311581937     1.1190368805
  143      C       3.0326853619    -0.6029785971    -1.6526542293
  144      C       8.3767586691     2.2564929087     0.6055986784
  145      C       6.2470185535     0.1290433510    -2.9236554099
  146      C       2.6391110634     1.5312999403     2.2183113346
  147      C       5.8976287621     5.1732267975    -0.5848253324
  148      C       6.4485413710    -1.3838374681    -0.9360140485
  149      C       3.8706412568     3.6181713656     2.4457800950
  150      C       4.9560022822    -0.0930841984    -3.0373450707
  151      C       8.2535211887     1.6159149120    -1.6376254196
  152      C       1.9781395174     2.7148643395    -1.5589295802
  153      C       1.7462521342     1.3818724692    -1.1256307049
  154      C       7.4678795788     2.2287950676    -2.6862736808
  155      C       2.9175204928     0.2074444481     1.9414055282
  156      C       4.2432210394    -1.5045990525     0.1447430356
  157      C       1.8846020720     2.1336132682     1.2134706323
  158      C       6.4563114811    -0.0330852411     2.4617388923
  159      C       7.8176929024     3.7989753929    -1.1558706669
  160      C       5.0329210370    -1.4978317109    -0.9783033201
  161      C       6.4890188034     1.4450149073    -3.3760078633
  162      C       3.6928637672     2.3068162351     2.8419175532
  163      C       5.9502369749     4.1162324965    -2.7470756472
  164      C       5.1892230335     3.8622808312     2.5754051966
  165      C       3.9248371534     4.7407630230    -2.0008275755
  166      C       8.4179094969     2.6365311002    -0.6874506565
  167      C       7.2105683737     3.5378663182    -2.4313062230
  168      C       7.3932559171     0.9783194368     2.1467203194
  169      C       5.1886236441     0.3970058466     2.8637503403
  170      C       2.1889023397     3.7442526349    -0.6011092578
  171      C       7.0991775153     4.5599391764    -0.2530529895
  172      C       4.2879254563     0.9876669554    -3.5831163583
  173      C       1.7295368811     1.1238340431     0.2735739874
  174      C       2.7554164954     2.7142000993    -2.7499497556
  175      C       4.9116756820     1.6862344698     3.2119361863
  176      C       3.1166552149     4.2158492451     1.4466173450
 ----------------------------------------------------------------

    9   -5804.2329633016      9.08E-06 Convergence criterion met
 Total energy in the final basis set = -5804.2329633016

                    Orbital Energies (a.u.)
 --------------------------------------------------------------

 Alpha MOs
 -- Occupied --
-19.207 -19.197 -19.133 -19.132 -10.324 -10.317 -10.250 -10.250
-10.247 -10.246 -10.245 -10.240 -10.239 -10.239 -10.230 -10.230
-10.228 -10.227 -10.225 -10.225 -10.223 -10.222 -10.221 -10.221
-10.220 -10.220 -10.220 -10.220 -10.219 -10.219 -10.219 -10.218
-10.218 -10.218 -10.218 -10.218 -10.218 -10.218 -10.217 -10.217
-10.217 -10.217 -10.217 -10.217 -10.217 -10.217 -10.217 -10.217
-10.216 -10.216 -10.216 -10.216 -10.216 -10.216 -10.216 -10.216
-10.216 -10.216 -10.215 -10.215 -10.215 -10.215 -10.215 -10.215
-10.215 -10.215 -10.214 -10.214 -10.214 -10.214 -10.214 -10.214
-10.214 -10.214 -10.214 -10.214 -10.214 -10.214 -10.213 -10.213
-10.213 -10.213 -10.213 -10.213 -10.213 -10.213 -10.213 -10.212
-10.212 -10.212 -10.212 -10.212 -10.212 -10.212 -10.211 -10.211
-10.211 -10.211 -10.211 -10.211 -10.211 -10.211 -10.210 -10.210
-10.210 -10.210 -10.210 -10.210 -10.210 -10.210 -10.209 -10.209
-10.209 -10.209 -10.209 -10.209 -10.209 -10.209 -10.209 -10.208
-10.208 -10.207 -10.207 -10.207 -10.207 -10.207 -10.207 -10.207
-10.206 -10.206 -10.206 -10.205 -10.204 -10.204 -10.204 -10.203
-10.203 -10.201 -10.200 -10.200 -10.199 -10.199 -10.198 -10.197
-10.197 -10.195 -10.192 -10.190  -1.107  -1.094  -1.013  -1.000
 -0.983  -0.981  -0.965  -0.963  -0.963  -0.961  -0.960  -0.958
 -0.934  -0.931  -0.927  -0.926  -0.925  -0.923  -0.922  -0.921
 -0.920  -0.920  -0.895  -0.892  -0.892  -0.890  -0.886  -0.884
 -0.878  -0.875  -0.859  -0.856  -0.842  -0.839  -0.838  -0.837
 -0.835  -0.832  -0.824  -0.819  -0.813  -0.803  -0.798  -0.796
 -0.795  -0.795  -0.793  -0.792  -0.790  -0.788  -0.785  -0.779
 -0.773  -0.770  -0.769  -0.768  -0.766  -0.764  -0.763  -0.763
 -0.751  -0.750  -0.747  -0.743  -0.735  -0.735  -0.720  -0.715
 -0.714  -0.714  -0.713  -0.711  -0.710  -0.709  -0.708  -0.708
 -0.707  -0.705  -0.704  -0.703  -0.702  -0.702  -0.675  -0.673
 -0.660  -0.656  -0.656  -0.654  -0.649  -0.646  -0.636  -0.632
 -0.629  -0.627  -0.624  -0.623  -0.621  -0.618  -0.618  -0.616
 -0.615  -0.614  -0.613  -0.612  -0.612  -0.611  -0.607  -0.605
 -0.604  -0.603  -0.603  -0.601  -0.583  -0.575  -0.569  -0.565
 -0.561  -0.561  -0.560  -0.557  -0.556  -0.555  -0.553  -0.553
 -0.539  -0.537  -0.535  -0.533  -0.529  -0.527  -0.525  -0.524
 -0.522  -0.520  -0.517  -0.517  -0.515  -0.512  -0.512  -0.510
 -0.507  -0.507  -0.504  -0.497  -0.492  -0.489  -0.487  -0.485
 -0.483  -0.482  -0.482  -0.479  -0.479  -0.478  -0.477  -0.474
 -0.473  -0.472  -0.471  -0.470  -0.469  -0.467  -0.466  -0.464
 -0.463  -0.463  -0.463  -0.462  -0.461  -0.461  -0.460  -0.457
 -0.457  -0.454  -0.453  -0.453  -0.452  -0.448  -0.446  -0.445
 -0.444  -0.442  -0.440  -0.438  -0.436  -0.434  -0.433  -0.431
 -0.430  -0.430  -0.429  -0.427  -0.427  -0.425  -0.424  -0.423
 -0.422  -0.422  -0.421  -0.420  -0.419  -0.419  -0.418  -0.417
 -0.417  -0.416  -0.416  -0.416  -0.415  -0.413  -0.413  -0.412
 -0.410  -0.410  -0.409  -0.408  -0.400  -0.399  -0.398  -0.395
 -0.394  -0.392  -0.391  -0.391  -0.387  -0.387  -0.384  -0.383
 -0.381  -0.378  -0.372  -0.371  -0.370  -0.368  -0.367  -0.365
 -0.364  -0.363  -0.363  -0.362  -0.361  -0.358  -0.357  -0.357
 -0.356  -0.356  -0.355  -0.354  -0.353  -0.353  -0.352  -0.351
 -0.351  -0.349  -0.347  -0.347  -0.346  -0.344  -0.343  -0.343
 -0.342  -0.341  -0.340  -0.339  -0.338  -0.338  -0.335  -0.333
 -0.333  -0.332  -0.330  -0.329  -0.326  -0.325  -0.324  -0.321
 -0.317  -0.312  -0.300  -0.297  -0.290  -0.286  -0.273  -0.271
 -0.267  -0.267  -0.266  -0.266  -0.265  -0.264  -0.264  -0.262
 -0.261  -0.259  -0.258  -0.258  -0.256  -0.255  -0.254  -0.253
 -0.251  -0.250  -0.247  -0.246  -0.223  -0.219  -0.212  -0.210
 -0.207  -0.206  -0.204  -0.202  -0.200  -0.196

          Ground-State Mulliken Net Atomic Charges

     Atom                 Charge (a.u.)
  ----------------------------------------
      1 O                    -0.436942
      2 C                    -0.092604
      3 H                     0.126428
      4 H                     0.127817
      5 H                     0.130632
      6 O                    -0.491110
      7 C                     0.595118
      8 C                    -0.258564
      9 H                     0.132286
     10 H                     0.136811
     11 C                    -0.192828
     12 H                     0.099896
     13 H                     0.128295
     14 C                    -0.172234
     15 H                     0.109874
     16 H                     0.115035
     17 C                    -0.011977
     18 C                     0.116038
     19 C                    -0.104189
     20 H                     0.096614
     21 C                    -0.091483
     22 H                     0.093655
     23 C                    -0.088846
     24 H                     0.091066
     25 C                    -0.093523
     26 H                     0.099600
     27 C                    -0.113914
     28 H                     0.092382
     29 C                    -0.009838
     30 C                     0.035622
     31 C                    -0.015220
     32 C                    -0.013004
     33 C                     0.001391
     34 C                     0.005829
     35 C                    -0.031885
     36 C                     0.022244
     37 C                     0.009028
     38 C                    -0.027868
     39 C                    -0.090799
     40 C                     0.021580
     41 C                     0.036184
     42 C                    -0.001746
     43 C                    -0.010391
     44 C                     0.039197
     45 C                    -0.083193
     46 C                     0.028553
     47 C                    -0.037058
     48 C                     0.019775
     49 C                     0.019456
     50 C                    -0.033747
     51 C                    -0.010215
     52 C                    -0.003982
     53 C                     0.014252
     54 C                    -0.015051
     55 C                     0.033338
     56 C                     0.001032
     57 C                    -0.033102
     58 C                     0.001591
     59 C                    -0.004420
     60 C                     0.054847
     61 C                    -0.008277
     62 C                    -0.022250
     63 C                    -0.032343
     64 C                     0.006568
     65 C                    -0.015930
     66 C                    -0.032228
     67 C                    -0.002177
     68 C                    -0.023783
     69 C                     0.001775
     70 C                     0.044668
     71 C                     0.027521
     72 C                    -0.021254
     73 C                     0.034267
     74 C                    -0.009783
     75 C                     0.004915
     76 C                    -0.013309
     77 C                     0.019205
     78 C                     0.007268
     79 C                     0.008159
     80 C                    -0.021830
     81 C                     0.027206
     82 C                    -0.013396
     83 C                    -0.038672
     84 C                     0.010760
     85 C                     0.015375
     86 C                    -0.011726
     87 C                    -0.007700
     88 C                     0.009044
     89 O                    -0.462622
     90 C                    -0.093106
     91 H                     0.125283
     92 H                     0.127314
     93 H                     0.130985
     94 O                    -0.461283
     95 C                     0.588138
     96 C                    -0.242387
     97 H                     0.134959
     98 H                     0.122524
     99 C                    -0.190610
    100 H                     0.117184
    101 H                     0.122123
    102 C                    -0.189597
    103 H                     0.106415
    104 H                     0.108846
    105 C                    -0.008841
    106 C                     0.090940
    107 C                    -0.105567
    108 H                     0.095164
    109 C                    -0.101172
    110 H                     0.089310
    111 C                    -0.070180
    112 H                     0.093213
    113 C                    -0.083936
    114 H                     0.084484
    115 C                    -0.109329
    116 H                     0.090928
    117 C                    -0.037498
    118 C                    -0.010386
    119 C                    -0.028917
    120 C                    -0.009156
    121 C                    -0.030046
    122 C                     0.017554
    123 C                    -0.008961
    124 C                     0.000162
    125 C                     0.047206
    126 C                    -0.018367
    127 C                    -0.072503
    128 C                     0.002874
    129 C                    -0.003038
    130 C                    -0.020330
    131 C                     0.019884
    132 C                     0.006225
    133 C                    -0.084656
    134 C                    -0.001277
    135 C                     0.001039
    136 C                    -0.021873
    137 C                     0.023583
    138 C                     0.006087
    139 C                    -0.017524
    140 C                     0.021023
    141 C                    -0.013202
    142 C                    -0.028707
    143 C                    -0.004172
    144 C                     0.014049
    145 C                     0.009408
    146 C                    -0.020297
    147 C                     0.020546
    148 C                     0.010307
    149 C                     0.056183
    150 C                     0.026570
    151 C                    -0.022170
    152 C                    -0.035501
    153 C                     0.036430
    154 C                     0.002739
    155 C                     0.004071
    156 C                     0.007421
    157 C                     0.031939
    158 C                     0.024878
    159 C                    -0.021823
    160 C                     0.015165
    161 C                    -0.028490
    162 C                    -0.025235
    163 C                     0.035349
    164 C                    -0.004380
    165 C                    -0.020952
    166 C                     0.010476
    167 C                    -0.008335
    168 C                    -0.010656
    169 C                     0.023721
    170 C                     0.006103
    171 C                     0.030316
    172 C                    -0.008708
    173 C                    -0.016849
    174 C                     0.019420
    175 C                     0.002899
    176 C                    -0.016604
  ----------------------------------------
  Sum of atomic charges =     0.000000

                    Cartesian Multipole Moments
 -----------------------------------------------------------------
    Charge (ESU x 10^10)
                 0.0000
    Dipole Moment (Debye)
         X      -4.0346      Y      -2.5347      Z       1.0325
       Tot       4.8754
    Quadrupole Moments (Debye-Ang)
        XX    -726.2113     XY      20.4423     YY    -835.7941
        XZ       1.9817     YZ       6.5397     ZZ    -792.0839

 Total job time:  840.52s(wall), 7109.13s(cpu)
        *  Thank you very much for using Q-Chem.  Have a nice day.  *
