 Q-Chem 4.4, Q-Chem, Inc., Pleasanton, CA (2016)
 Q-Chem 4.4.2 for Intel X86 Linux

User input:
--------------------------------------------------------------
$comment
SP
$end

$rem
MEM_STATIC 5000
MEM_TOTAL 20000
JOBTYPE SP
EXCHANGE B3LYP
BASIS 6-31g(d,p)
$end

$molecule
0 1
O          10.263000     12.100000      9.309000
C          11.515000     12.743000      9.282000
H          12.315000     12.032000      9.522000
H          11.470000     13.610000      9.953000
H          11.699000     13.073000      8.252000
O           9.215000     13.993000      8.925000
C           9.129000     12.824000      9.141000
C           7.850000     12.062000      9.026000
H           7.927000     11.487000      8.094000
H           7.048000     12.782000      8.824000
C           7.446000     11.168000     10.334000
H           8.201000     10.376000     10.402000
H           7.705000     11.732000     11.238000
C           5.956000     10.687000     10.360000
H           5.321000     11.447000     10.832000
H           5.699000     10.456000      9.319000
C           5.841000      9.393000     11.224000
C           5.976000      9.713000     12.745000
C           4.911000     10.393000     13.358000
H           4.041000     10.711000     12.792000
C           5.083000     10.677000     14.738000
H           4.343000     11.277000     15.259000
C           6.355000     10.729000     15.316000
H           6.520000     11.275000     16.240000
C           7.364000      9.988000     14.639000
H           8.344000      9.838000     15.082000
C           7.245000      9.389000     13.404000
H           8.116000      8.918000     12.958000
C           7.706000      4.268000     11.784000
C           5.427000      4.034000     12.495000
C           4.014000      1.748000      8.900000
C           7.922000      6.362000      7.114000
C           2.578000      4.508000      7.372000
C           6.624000      4.766000     12.415000
C           5.654000      5.569000      5.793000
C           6.099000      1.483000     10.163000
C           3.098000      6.755000     10.668000
C           6.796000      7.194000      7.169000
C           4.938000      8.219000     10.712000
C           3.103000      7.317000      9.427000
C           4.625000      7.393000      7.062000
C           4.464000      4.800000      5.856000
C           4.904000      6.257000     12.258000
C           4.101000      2.669000      6.904000
C           6.441000      8.107000     10.720000
C           7.161000      7.941000      9.425000
C           2.955000      3.172000      7.553000
C           8.037000      2.909000      7.557000
C           6.138000      1.708000      7.772000
C           6.788000      1.604000      8.946000
C           6.499000      2.190000     11.322000
C           8.228000      7.010000      9.487000
C           4.227000      7.208000     11.433000
C           5.380000      2.753000     11.922000
C           5.698000      6.880000      6.383000
C           4.398000      4.950000     12.407000
C           2.645000      6.640000      8.272000
C           8.972000      4.930000      8.541000
C           4.680000      1.528000     10.170000
C           4.204000      8.179000      9.354000
C           8.346000      3.020000      9.989000
C           3.439000      6.630000      7.133000
C           2.560000      5.433000     10.847000
C           6.242000      3.337000      5.976000
C           6.747000      4.695000      5.795000
C           2.211000      4.713000      9.716000
C           8.622000      6.255000      8.341000
C           6.421000      7.999000      8.244000
C           8.556000      4.196000      7.412000
C           7.064000      6.977000     11.478000
C           3.192000      3.260000     11.062000
C           5.004000      8.091000      8.208000
C           2.177000      5.311000      8.435000
C           8.912000      4.362000      9.821000
C           2.950000      2.584000      8.763000
C           7.672000      2.967000     11.212000
C           4.750000      1.764000      7.734000
C           3.218000      4.523000     11.702000
C           2.546000      3.358000      9.861000
C           6.265000      6.125000     12.232000
C           8.170000      6.432000     10.774000
C           6.924000      2.451000      6.841000
C           4.262000      2.363000     11.228000
C           3.335000      5.342000      6.523000
C           7.905000      5.068000      6.554000
C           4.888000      3.491000      6.073000
C           8.448000      5.088000     10.932000
C           7.900000      2.399000      8.863000
O          11.112000      8.722000      7.522000
C          11.110000      9.069000      8.930000
H          10.087000      9.034000      9.326000
H          11.550000     10.071000      9.008000
H          11.654000      8.346000      9.551000
O           9.494000     10.142000      6.987000
C          10.338000      9.336000      6.649000
C          10.586000      8.851000      5.153000
H          11.483000      8.238000      5.306000
H          10.869000      9.724000      4.552000
C           9.399000      8.009000      4.619000
H           9.497000      7.076000      5.187000
H           8.438000      8.477000      4.866000
C           9.593000      7.790000      3.091000
H           9.776000      8.748000      2.589000
H          10.441000      7.100000      3.002000
C           8.424000      7.362000      2.293000
C           7.201000      8.261000      2.372000
C           7.079000      9.346000      1.436000
H           7.780000      9.499000      0.621000
C           5.967000     10.187000      1.531000
H           5.886000     11.047000      0.874000
C           4.968000     10.025000      2.555000
H           4.119000     10.701000      2.590000
C           5.102000      8.939000      3.439000
H           4.440000      8.731000      4.274000
C           6.184000      8.046000      3.273000
H           6.211000      7.128000      3.852000
C           5.470000      2.818000      1.553000
C           5.020000      4.081000     -0.473000
C           7.334000      1.456000     -3.150000
C          10.306000      2.153000      2.333000
C          10.223000      3.434000     -3.228000
C           5.345000      4.042000      0.883000
C          11.568000      1.954000     -0.178000
C           5.764000      0.860000     -1.430000
C           8.240000      6.407000     -1.384000
C          10.993000      3.270000      1.853000
C           8.555000      6.602000      0.987000
C           9.629000      6.244000     -1.167000
C          11.496000      4.418000     -0.063000
C          11.317000      2.058000     -1.585000
C           6.353000      5.913000      0.114000
C           9.523000      1.126000     -2.867000
C           8.284000      5.834000      2.225000
C           9.249000      4.741000      2.713000
C           9.413000      2.379000     -3.508000
C           8.318000     -0.311000      0.769000
C           8.010000     -0.140000     -1.528000
C           6.760000      0.003000     -0.863000
C           5.095000      1.668000     -0.531000
C           8.605000      3.554000      3.205000
C           7.532000      6.593000     -0.149000
C           4.823000      2.897000     -1.191000
C          11.647000      3.171000      0.585000
C           5.661000      5.305000     -0.962000
C          10.335000      5.346000     -2.022000
C           8.313000      1.207000      2.660000
C           6.064000      1.577000     -2.564000
C           9.856000      6.221000      0.234000
C           6.284000      0.686000      1.385000
C          11.321000      4.473000     -1.475000
C           7.513000      5.750000     -2.429000
C          10.247000      0.219000     -0.753000
C          10.883000      0.845000      0.353000
C           8.273000      4.852000     -3.240000
C           9.122000      2.288000      2.975000
C          10.389000      4.549000      1.964000
C           9.002000      0.332000      1.810000
C           7.037000      5.054000      2.332000
C           6.191000      3.986000     -2.871000
C          10.680000      5.231000      0.752000
C           9.661000      4.730000     -3.066000
C           6.949000      1.385000      2.426000
C           8.032000      2.536000     -3.664000
C           5.337000      1.569000      0.829000
C           8.274000      0.512000     -2.716000
C           6.241000      5.181000     -2.174000
C           7.438000      3.833000     -3.584000
C           6.062000      5.203000      1.281000
C           7.262000      3.780000      2.934000
C           8.970000     -0.368000     -0.501000
C           5.493000      2.856000     -2.420000
C          11.212000      3.307000     -2.210000
C          10.233000      0.957000      1.614000
C          10.528000      0.992000     -1.883000
C           6.428000      2.691000      2.557000
C           6.994000     -0.125000      0.495000
$end

--------------------------------------------------------------

             Standard Nuclear Orientation (Angstroms)
    I     Atom           X                Y                Z
 ----------------------------------------------------------------
    1      O       5.6773216811     6.2148685606    -1.3880391254
    2      C       5.6709456407     7.3436673064    -2.2291424112
    3      H       5.5036999093     7.0431849209    -3.2707086364
    4      H       6.6040942311     7.8976554475    -2.0670133029
    5      H       4.8108315954     7.9643788829    -1.9488265750
    6      O       6.1749725514     7.4469789485     0.3622341685
    7      C       5.9715597680     6.3558038296    -0.0720158740
    8      C       5.8095705206     5.1481229814     0.7911043104
    9      H       4.7351580930     4.9227000294     0.7917586314
   10      H       6.0152858731     5.4459814558     1.8261741259
   11      C       6.7613080773     3.8763001467     0.4038339913
   12      H       6.4146868532     3.5285705410    -0.5763960064
   13      H       7.7495462537     4.2530148247     0.1142405555
   14      C       6.8645065268     2.7771928897     1.5144420759
   15      H       7.6758781534     3.0189951329     2.2121646273
   16      H       5.8686288932     2.7196731454     1.9705234481
   17      C       7.2170472478     1.4057720328     0.8594024792
   18      C       8.7063366218     1.3647957830     0.3963645679
   19      C       9.6911419328     1.3066294977     1.3959490730
   20      H       9.4305316478     1.3200282516     2.4496486283
   21      C      11.0317851328     1.2867004623     0.9302038168
   22      H      11.8488629592     1.3316844942     1.6439273364
   23      C      11.3676017889     1.7703098493    -0.3379133443
   24      H      12.3836230525     2.0836890442    -0.5583929853
   25      C      10.3116625956     1.7665739773    -1.2920985796
   26      H      10.5005590441     1.9774103515    -2.3404378162
   27      C       8.9831720110     1.5058731189    -1.0364917935
   28      H       8.2589450132     1.6124709082    -1.8386951138
   29      C       5.5924527189    -2.2563409161    -2.8831997394
   30      C       6.5459670101    -3.6749248169    -1.2001821479
   31      C       2.6650466324    -5.3851244503     0.2695335510
   32      C       2.0096506578     0.7855770102    -0.8458836812
   33      C       2.4853067137    -3.3072424761     3.0380313499
   34      C       6.5318313750    -2.4821790175    -1.9432774594
   35      C       0.8945014121    -0.6029981979     1.2388261430
   36      C       3.3807955201    -4.9695668634    -2.0386333454
   37      C       6.2277276911    -1.9650889691     2.4248966250
   38      C       2.5459820020     0.9672777008     0.4357007086
   39      C       6.4801514816     0.1164375328     1.3598324711
   40      C       5.2864271849    -1.1759789198     3.0141407908
   41      C       2.8837139177     0.1701792022     2.4394127979
   42      C       0.8786543001    -1.8199381969     1.9669991362
   43      C       7.2079690965    -1.9570589454     0.1717205764
   44      C       1.1438832928    -4.0652054089     1.1548028990
   45      C       6.1947825548     0.7066210361     0.0026791975
   46      C       4.8242521091     1.2145210408    -0.2917098013
   47      C       2.1123532311    -4.3205118729     2.1469775752
   48      C       1.1674804161    -2.2204469732    -2.3909571732
   49      C       1.2567222818    -4.1683884436    -1.2541252079
   50      C       2.1894057243    -4.2500189514    -2.2210947298
   51      C       4.6306343479    -4.4692411966    -2.4753336221
   52      C       4.3701195457     0.8923390143    -1.5951883614
   53      C       6.9023194331    -1.2506714179     1.3762744126
   54      C       5.5708974884    -4.6488321099    -1.4689627509
   55      C       1.8963873313     0.3909552883     1.5163834746
   56      C       6.9644666222    -3.3417355961     0.0724073451
   57      C       4.0607077394    -1.6782138523     3.5116243720
   58      C       2.6345393859    -0.3097664769    -2.7430367386
   59      C       3.6419552413    -5.5822411677    -0.7848148590
   60      C       5.3411818107     0.0821334581     2.4019895223
   61      C       3.3903873773    -2.5855379480    -3.3645172494
   62      C       2.8766843375    -1.0417837893     3.1639142073
   63      C       6.0118390420    -3.3846382722     2.3386361627
   64      C       0.1687259801    -2.2854535407    -0.1766776690
   65      C       0.4011510992    -0.8497648292    -0.0473467452
   66      C       4.7745263974    -3.8796506599     2.7172945253
   67      C       2.9815690992     0.7111617666    -1.8738987175
   68      C       3.8838881804     1.2174081075     0.7385485869
   69      C       1.4053483957    -0.8478916185    -2.3118014877
   70      C       6.3841713367    -0.1607925265    -1.2020276550
   71      C       5.3290911969    -5.0044793129     0.8972658484
   72      C       4.1219305240     0.6564221533     2.0216228645
   73      C       3.8158443733    -3.0677516542     3.3665015655
   74      C       3.6188008148    -1.1388132010    -3.2984959799
   75      C       3.0158988925    -5.1241632679     1.5573856204
   76      C       4.6089912862    -3.2416277687    -3.1712178435
   77      C       1.4752244576    -4.7463553442    -0.0094023227
   78      C       6.3628636816    -4.0721210503     1.1570109547
   79      C       4.3687808708    -4.9194671085     1.8667492173
   80      C       6.9081116247    -1.4405340601    -1.0586080543
   81      C       5.3569163858     0.0539360798    -2.1583308975
   82      C       0.5334539793    -2.9439278486    -1.3732269042
   83      C       4.9821556723    -5.3219634217    -0.4278396502
   84      C       1.8747014063    -2.0386064363     2.9535934618
   85      C       1.0368527388    -0.1889185517    -1.1497711747
   86      C       0.5405014952    -2.7975397901     1.0341037479
   87      C       4.9766262260    -1.0057846427    -2.9589277902
   88      C       2.2092523220    -3.0416232276    -2.8651784877
   89      O       2.6887186000     4.1601580449    -2.8616300864
   90      C       4.1068084120     4.1074852542    -3.1601662855
   91      H       4.6304031870     3.5115279241    -2.4017116908
   92      H       4.4614125212     5.1453406643    -3.1884518542
   93      H       4.3285428733     3.5854001606    -4.0996166480
   94      O       2.9749728613     4.7647758266    -0.7466726788
   95      C       2.2352232281     4.5461999004    -1.6854010978
   96      C       0.6457110562     4.6153448944    -1.6269628809
   97      H       0.4170923493     4.4644623454    -2.6893916754
   98      H       0.3566780819     5.6390563697    -1.3588327724
   99      C       0.0546298833     3.4850358433    -0.7459898415
  100      H       0.2278688216     2.5925959864    -1.3593872429
  101      H       0.6100189139     3.3838909778     0.1946837155
  102      C      -1.4604584520     3.7645646774    -0.5297678094
  103      H      -1.6113971323     4.7906322433    -0.1724726023
  104      H      -1.9306946567     3.5853278722    -1.5043841849
  105      C      -2.1497478709     3.0613529070     0.5733742046
  106      C      -1.5511741219     3.2499526351     1.9576829164
  107      C      -2.0044745881     4.3522151379     2.7625065383
  108      H      -2.8169903419     5.0051923359     2.4584112758
  109      C      -1.4305267747     4.5381195064     4.0230117835
  110      H      -1.7144322704     5.3979964305     4.6211918107
  111      C      -0.3789890577     3.6894075874     4.5197788397
  112      H       0.0367948824     3.8695809653     5.5065226104
  113      C       0.0241414062     2.6046393340     3.7200465935
  114      H       0.8288878519     1.9175906601     3.9631109427
  115      C      -0.6285419155     2.3781485834     2.4877984767
  116      H      -0.4279060344     1.4633084243     1.9387021950
  117      C      -3.9516380390    -1.9884422015     1.6570776623
  118      C      -5.2882195343    -0.6147593853     3.1500245558
  119      C      -9.0730616368    -1.1358748483     0.9557230876
  120      C      -4.2850761196    -0.5361550028    -3.0564350341
  121      C      -8.9261360583     1.8948641278    -0.7929687471
  122      C      -4.1104293139    -0.8346034311     2.4356291524
  123      C      -6.8762065416     0.4922464766    -3.4636199226
  124      C      -7.4403494474    -2.7886449870     1.5730704576
  125      C      -5.8386533316     3.0706287726     1.4997113249
  126      C      -4.4439358830     0.8509166406    -3.0856554314
  127      C      -3.6429012163     2.7951078691     0.5714592687
  128      C      -5.9309126879     3.5134103163     0.1586625876
  129      C      -5.8806848980     2.5353051961    -2.5020832746
  130      C      -8.0901668458     0.8140795499    -2.7735548149
  131      C      -4.3203322621     1.4147940901     2.5005717719
  132      C      -9.2987169093    -0.4859380653    -1.1673341127
  133      C      -2.7329930234     1.7090704835     0.1372946943
  134      C      -2.8361211332     1.0965234416    -1.2691791641
  135      C      -9.4230461927     0.6923632174    -0.3997806511
  136      C      -6.2659083142    -3.1636728308    -1.7750335045
  137      C      -8.2644476395    -2.5906531568    -0.7368605814
  138      C      -7.3920139298    -3.2049761427     0.2047554184
  139      C      -6.2136880385    -2.6269803713     2.1877186006
  140      C      -2.6983998432    -0.3336223220    -1.3077140995
  141      C      -4.5181655219     2.6001365605     1.8096048918
  142      C      -6.3367793508    -1.5386152896     3.0934420561
  143      C      -5.7546811522     1.3791604764    -3.3053058110
  144      C      -5.4094988777     0.8448725344     3.2042830080
  145      C      -7.1554151063     3.2809324412    -0.5358968879
  146      C      -3.9862442029    -2.3370160086    -1.7752273525
  147      C      -8.2777122941    -1.7586076963     1.9306898681
  148      C      -4.6895768055     3.2512576875    -0.4779065179
  149      C      -5.0024263108    -3.3952824822     0.1898052157
  150      C      -7.1294796317     2.8513046917    -1.8954120029
  151      C      -6.9108935880     2.4351758721     2.2059007073
  152      C      -7.8005300430    -1.4519370896    -2.7915579270
  153      C      -6.6679574234    -0.8996868244    -3.4487541730
  154      C      -8.1040374744     2.2165312161     1.4507006141
  155      C      -3.4477344541    -1.1214203644    -2.1684213001
  156      C      -3.7847133685     1.6394260622    -2.1075672102
  157      C      -5.1950983805    -2.5588660913    -2.4477599673
  158      C      -2.7027281559     0.4457719465     0.8975701996
  159      C      -7.7231335981     0.4328828469     2.8270551223
  160      C      -4.7047225724     2.6547371976    -1.7314351019
  161      C      -8.2210468443     2.7045037687     0.1392527138
  162      C      -3.9084723670    -2.7513425011    -0.4451066440
  163      C      -9.2782023641     0.2330362886     0.9133016151
  164      C      -5.0396322624    -2.9370412014     1.5218204730
  165      C      -9.1685421203    -1.6192541789    -0.3558865723
  166      C      -6.6652298424     1.3040541234     3.0225909263
  167      C      -8.6427434584     1.0491599735     1.8989887410
  168      C      -3.4516582724     0.3866948952     2.1276273457
  169      C      -2.6410704116    -0.6881948921     0.0336127170
  170      C      -7.5631944792    -2.5999786055    -1.9764048691
  171      C      -7.5937092730    -0.9631555854     2.8698457691
  172      C      -8.2020558330     1.9872967542    -2.0167898275
  173      C      -5.3596882119    -1.4132664441    -3.2255219075
  174      C      -8.6110723245    -0.3837555392    -2.3973506396
  175      C      -3.2352111119    -1.9067346685     0.4646157814
  176      C      -6.2287808984    -3.5429717028    -0.4645366824
 ----------------------------------------------------------------

    9   -5804.2483680731      9.40E-06 Convergence criterion met
 Total energy in the final basis set = -5804.2483680731

                    Orbital Energies (a.u.)
 --------------------------------------------------------------

 Alpha MOs
 -- Occupied --
-19.196 -19.179 -19.128 -19.121 -10.315 -10.304 -10.247 -10.245
-10.241 -10.240 -10.239 -10.238 -10.232 -10.232 -10.231 -10.230
-10.229 -10.228 -10.227 -10.227 -10.227 -10.226 -10.225 -10.225
-10.225 -10.224 -10.224 -10.223 -10.223 -10.223 -10.222 -10.222
-10.221 -10.221 -10.221 -10.221 -10.221 -10.220 -10.220 -10.220
-10.219 -10.219 -10.219 -10.219 -10.219 -10.219 -10.218 -10.218
-10.217 -10.217 -10.217 -10.217 -10.217 -10.217 -10.216 -10.216
-10.216 -10.216 -10.216 -10.216 -10.216 -10.216 -10.216 -10.216
-10.215 -10.215 -10.215 -10.215 -10.215 -10.215 -10.215 -10.215
-10.215 -10.215 -10.214 -10.214 -10.214 -10.214 -10.214 -10.214
-10.214 -10.214 -10.213 -10.213 -10.213 -10.213 -10.213 -10.213
-10.213 -10.213 -10.213 -10.213 -10.213 -10.212 -10.212 -10.212
-10.212 -10.212 -10.212 -10.212 -10.212 -10.212 -10.211 -10.211
-10.211 -10.211 -10.211 -10.211 -10.211 -10.211 -10.211 -10.211
-10.211 -10.210 -10.210 -10.210 -10.210 -10.210 -10.210 -10.210
-10.209 -10.209 -10.209 -10.208 -10.208 -10.208 -10.208 -10.208
-10.208 -10.207 -10.207 -10.207 -10.207 -10.207 -10.207 -10.206
-10.206 -10.205 -10.202 -10.202 -10.201 -10.200 -10.199 -10.198
-10.198 -10.198 -10.195 -10.190  -1.106  -1.099  -1.009  -1.007
 -0.988  -0.981  -0.971  -0.967  -0.967  -0.964  -0.960  -0.959
 -0.938  -0.933  -0.932  -0.930  -0.929  -0.925  -0.924  -0.922
 -0.921  -0.918  -0.902  -0.895  -0.894  -0.890  -0.887  -0.880
 -0.876  -0.871  -0.857  -0.848  -0.845  -0.842  -0.840  -0.840
 -0.838  -0.835  -0.826  -0.823  -0.802  -0.802  -0.801  -0.799
 -0.796  -0.795  -0.794  -0.793  -0.791  -0.790  -0.782  -0.780
 -0.775  -0.773  -0.772  -0.771  -0.768  -0.766  -0.762  -0.760
 -0.759  -0.746  -0.744  -0.741  -0.736  -0.734  -0.721  -0.719
 -0.718  -0.714  -0.713  -0.712  -0.712  -0.711  -0.710  -0.710
 -0.708  -0.707  -0.706  -0.705  -0.703  -0.700  -0.677  -0.671
 -0.663  -0.661  -0.657  -0.656  -0.652  -0.645  -0.636  -0.633
 -0.628  -0.625  -0.622  -0.622  -0.622  -0.621  -0.621  -0.618
 -0.616  -0.616  -0.615  -0.613  -0.613  -0.612  -0.611  -0.609
 -0.608  -0.607  -0.602  -0.599  -0.568  -0.566  -0.565  -0.564
 -0.563  -0.560  -0.560  -0.559  -0.558  -0.557  -0.553  -0.549
 -0.540  -0.536  -0.535  -0.532  -0.530  -0.529  -0.527  -0.526
 -0.524  -0.524  -0.521  -0.517  -0.516  -0.516  -0.515  -0.512
 -0.511  -0.503  -0.501  -0.497  -0.493  -0.491  -0.488  -0.488
 -0.486  -0.484  -0.483  -0.482  -0.480  -0.478  -0.477  -0.477
 -0.476  -0.472  -0.471  -0.470  -0.470  -0.469  -0.468  -0.467
 -0.466  -0.465  -0.463  -0.463  -0.460  -0.459  -0.459  -0.458
 -0.457  -0.454  -0.452  -0.452  -0.451  -0.448  -0.445  -0.444
 -0.443  -0.443  -0.440  -0.440  -0.438  -0.438  -0.436  -0.436
 -0.432  -0.431  -0.429  -0.429  -0.428  -0.426  -0.426  -0.426
 -0.426  -0.423  -0.423  -0.421  -0.420  -0.419  -0.419  -0.418
 -0.417  -0.417  -0.416  -0.415  -0.415  -0.414  -0.414  -0.413
 -0.412  -0.411  -0.409  -0.407  -0.405  -0.403  -0.400  -0.398
 -0.396  -0.395  -0.394  -0.389  -0.388  -0.388  -0.387  -0.385
 -0.381  -0.380  -0.375  -0.373  -0.372  -0.369  -0.368  -0.367
 -0.365  -0.364  -0.361  -0.361  -0.360  -0.359  -0.359  -0.358
 -0.357  -0.356  -0.356  -0.354  -0.353  -0.353  -0.352  -0.351
 -0.350  -0.348  -0.348  -0.348  -0.347  -0.346  -0.345  -0.344
 -0.342  -0.341  -0.341  -0.338  -0.337  -0.335  -0.333  -0.333
 -0.332  -0.331  -0.330  -0.329  -0.327  -0.326  -0.324  -0.324
 -0.314  -0.301  -0.301  -0.291  -0.289  -0.288  -0.273  -0.273
 -0.270  -0.268  -0.267  -0.266  -0.266  -0.265  -0.264  -0.262
 -0.262  -0.261  -0.260  -0.259  -0.258  -0.257  -0.256  -0.254
 -0.250  -0.247  -0.245  -0.242  -0.227  -0.223  -0.214  -0.211
 -0.210  -0.209  -0.207  -0.204  -0.201  -0.200

          Ground-State Mulliken Net Atomic Charges

     Atom                 Charge (a.u.)
  ----------------------------------------
      1 O                    -0.460638
      2 C                    -0.074917
      3 H                     0.105228
      4 H                     0.127746
      5 H                     0.124613
      6 O                    -0.463827
      7 C                     0.586417
      8 C                    -0.271295
      9 H                     0.175120
     10 H                     0.123725
     11 C                    -0.203991
     12 H                     0.118016
     13 H                     0.112333
     14 C                    -0.187204
     15 H                     0.116946
     16 H                     0.120133
     17 C                     0.007835
     18 C                     0.054945
     19 C                    -0.089975
     20 H                     0.105993
     21 C                    -0.105184
     22 H                     0.085537
     23 C                    -0.073340
     24 H                     0.103715
     25 C                    -0.099794
     26 H                     0.080731
     27 C                    -0.075666
     28 H                     0.105741
     29 C                     0.014429
     30 C                     0.010266
     31 C                     0.005323
     32 C                    -0.021328
     33 C                     0.010906
     34 C                    -0.015113
     35 C                     0.003146
     36 C                    -0.009715
     37 C                     0.015751
     38 C                     0.001718
     39 C                    -0.083821
     40 C                     0.024162
     41 C                    -0.016595
     42 C                    -0.016417
     43 C                     0.000581
     44 C                    -0.024872
     45 C                    -0.072185
     46 C                     0.027127
     47 C                     0.014451
     48 C                     0.012449
     49 C                     0.006956
     50 C                     0.030670
     51 C                    -0.014523
     52 C                    -0.001221
     53 C                     0.043584
     54 C                     0.029915
     55 C                    -0.002333
     56 C                    -0.015323
     57 C                    -0.019088
     58 C                     0.016528
     59 C                    -0.033640
     60 C                    -0.009362
     61 C                    -0.012381
     62 C                     0.010856
     63 C                    -0.028832
     64 C                     0.001058
     65 C                    -0.022832
     66 C                     0.013485
     67 C                    -0.009238
     68 C                     0.020465
     69 C                     0.004650
     70 C                     0.008194
     71 C                     0.016574
     72 C                     0.008089
     73 C                    -0.017199
     74 C                    -0.026801
     75 C                     0.014576
     76 C                    -0.010617
     77 C                    -0.002422
     78 C                    -0.027546
     79 C                     0.003145
     80 C                     0.017670
     81 C                    -0.017951
     82 C                    -0.027361
     83 C                    -0.003103
     84 C                    -0.015737
     85 C                    -0.001751
     86 C                     0.040596
     87 C                     0.008635
     88 C                     0.017334
     89 O                    -0.441822
     90 C                    -0.081819
     91 H                     0.134047
     92 H                     0.130685
     93 H                     0.119356
     94 O                    -0.474697
     95 C                     0.560788
     96 C                    -0.254249
     97 H                     0.123311
     98 H                     0.128093
     99 C                    -0.190898
    100 H                     0.115478
    101 H                     0.132130
    102 C                    -0.162832
    103 H                     0.103924
    104 H                     0.107490
    105 C                     0.005964
    106 C                     0.075521
    107 C                    -0.100965
    108 H                     0.094405
    109 C                    -0.095222
    110 H                     0.089014
    111 C                    -0.087543
    112 H                     0.094468
    113 C                    -0.096469
    114 H                     0.092656
    115 C                    -0.093583
    116 H                     0.090029
    117 C                    -0.022840
    118 C                     0.012872
    119 C                     0.027266
    120 C                     0.018499
    121 C                    -0.031167
    122 C                     0.007922
    123 C                    -0.015759
    124 C                    -0.012587
    125 C                     0.001251
    126 C                    -0.029898
    127 C                    -0.092851
    128 C                     0.001345
    129 C                    -0.008448
    130 C                     0.019421
    131 C                     0.046597
    132 C                    -0.026587
    133 C                    -0.058979
    134 C                    -0.011923
    135 C                     0.033109
    136 C                     0.014082
    137 C                     0.007751
    138 C                     0.009173
    139 C                     0.025485
    140 C                    -0.000637
    141 C                     0.019188
    142 C                    -0.035303
    143 C                    -0.014278
    144 C                    -0.043349
    145 C                    -0.009427
    146 C                    -0.019485
    147 C                     0.009321
    148 C                     0.009359
    149 C                    -0.016280
    150 C                    -0.009347
    151 C                    -0.039360
    152 C                    -0.016978
    153 C                    -0.017008
    154 C                     0.021889
    155 C                     0.023210
    156 C                     0.019978
    157 C                    -0.003331
    158 C                     0.005088
    159 C                     0.022089
    160 C                     0.029073
    161 C                     0.021797
    162 C                     0.001904
    163 C                    -0.013719
    164 C                    -0.004975
    165 C                    -0.019889
    166 C                     0.030205
    167 C                    -0.033738
    168 C                    -0.000335
    169 C                     0.012171
    170 C                    -0.023969
    171 C                    -0.010317
    172 C                     0.007264
    173 C                     0.008380
    174 C                     0.023278
    175 C                    -0.000074
    176 C                     0.013689
  ----------------------------------------
  Sum of atomic charges =     0.000000

                    Cartesian Multipole Moments
 -----------------------------------------------------------------
    Charge (ESU x 10^10)
                 0.0000
    Dipole Moment (Debye)
         X       4.1321      Y       0.8326      Z      -1.6553
       Tot       4.5285
    Quadrupole Moments (Debye-Ang)
        XX    -790.6073     XY      -1.4722     YY    -825.3935
        XZ      -9.3294     YZ     -12.2076     ZZ    -795.0128

 Total job time:  886.68s(wall), 7547.70s(cpu)
        *  Thank you very much for using Q-Chem.  Have a nice day.  *
