 Q-Chem 4.4, Q-Chem, Inc., Pleasanton, CA (2016)
 Q-Chem 4.4.2 for Intel X86 Linux

User input:
--------------------------------------------------------------
$comment
SP
$end

$rem
MEM_STATIC 5000
MEM_TOTAL 20000
JOBTYPE SP
EXCHANGE B3LYP
BASIS 6-31g(d,p)
$end

$molecule
0 1
O         -13.336000     -2.169000      6.429000
C         -14.631000     -1.830000      7.009000
H         -15.398000     -2.609000      6.921000
H         -15.068000     -0.949000      6.523000
H         -14.515000     -1.631000      8.082000
O         -14.130000     -2.189000      4.211000
C         -13.199000     -2.243000      5.054000
C         -11.774000     -2.615000      4.586000
H         -11.120000     -2.252000      5.388000
H         -11.498000     -1.951000      3.757000
C         -11.656000     -4.136000      4.325000
H         -10.584000     -4.211000      4.101000
H         -11.889000     -4.749000      5.205000
C         -12.477000     -4.548000      3.102000
H         -13.535000     -4.508000      3.391000
H         -12.205000     -3.780000      2.367000
C         -12.161000     -5.933000      2.585000
C         -12.219000     -6.977000      3.666000
C         -13.482000     -7.472000      4.063000
H         -14.336000     -7.089000      3.513000
C         -13.536000     -8.546000      4.980000
H         -14.502000     -9.013000      5.152000
C         -12.396000     -8.800000      5.722000
H         -12.468000     -9.459000      6.582000
C         -11.140000     -8.338000      5.429000
H         -10.270000     -8.685000      5.979000
C         -11.059000     -7.356000      4.376000
H         -10.088000     -6.921000      4.160000
C          -8.584000     -8.934000     -0.449000
C         -10.787000     -9.997000     -0.727000
C         -11.477000     -8.759000     -5.098000
C          -9.087000     -3.986000     -1.569000
C         -13.654000     -6.087000     -4.336000
C          -9.890000     -9.319000      0.052000
C         -11.028000     -3.682000     -3.596000
C          -9.502000     -9.520000     -3.948000
C         -13.872000     -7.434000     -0.493000
C         -10.409000     -3.561000     -1.288000
C         -12.547000     -6.290000      1.155000
C         -14.026000     -6.072000     -0.769000
C         -12.589000     -3.880000     -1.725000
C         -11.893000     -4.384000     -4.449000
C         -12.053000     -8.620000      0.585000
C         -11.674000     -6.483000     -5.649000
C         -11.099000     -6.090000      1.493000
C         -10.343000     -5.007000      0.742000
C         -12.868000     -6.966000     -5.180000
C          -8.021000     -6.357000     -3.921000
C          -9.473000     -7.453000     -5.281000
C          -8.829000     -8.420000     -4.468000
C          -9.209000     -9.936000     -2.619000
C          -9.093000     -5.450000      0.344000
C         -12.957000     -7.599000      0.581000
C         -10.428000    -10.305000     -2.077000
C         -11.396000     -3.427000     -2.260000
C         -12.092000     -9.575000     -0.452000
C         -14.172000     -5.655000     -2.136000
C          -7.706000     -5.754000     -1.596000
C         -10.848000     -9.728000     -4.275000
C         -13.209000     -5.342000      0.139000
C          -7.624000     -8.106000     -2.336000
C         -13.440000     -4.532000     -2.611000
C         -13.882000     -8.376000     -1.504000
C          -9.786000     -5.052000     -4.994000
C          -9.748000     -4.096000     -3.939000
C         -14.123000     -7.935000     -2.879000
C          -8.503000     -4.920000     -0.761000
C         -11.009000     -4.147000     -0.084000
C          -7.871000     -5.349000     -2.920000
C         -10.123000     -7.268000      1.267000
C         -12.695000     -9.702000     -2.802000
C         -12.410000     -4.313000     -0.402000
C         -14.202000     -6.608000     -3.163000
C          -7.497000     -7.121000     -1.286000
C         -12.788000     -8.351000     -4.882000
C          -8.326000     -9.217000     -1.830000
C         -10.829000     -7.629000     -5.600000
C         -13.047000     -9.452000     -1.454000
C         -13.415000     -8.826000     -3.682000
C         -10.651000     -8.478000      0.786000
C          -8.949000     -6.804000      0.642000
C          -8.944000     -6.215000     -4.929000
C         -11.405000    -10.171000     -3.102000
C         -13.128000     -4.819000     -3.955000
C          -8.782000     -4.253000     -2.894000
C         -11.150000     -5.213000     -5.294000
C          -8.156000     -7.639000     -0.185000
C          -7.878000     -7.735000     -3.684000
O          -3.094000     -4.648000    -13.608000
C          -2.923000     -4.583000    -15.022000
H          -3.676000     -3.935000    -15.486000
H          -2.986000     -5.538000    -15.557000
H          -2.009000     -4.015000    -15.236000
O          -3.618000     -2.408000    -13.383000
C          -3.397000     -3.505000    -12.937000
C          -3.636000     -3.808000    -11.402000
H          -2.757000     -3.476000    -10.835000
H          -3.566000     -4.887000    -11.216000
C          -4.826000     -3.073000    -10.791000
H          -4.867000     -2.041000    -11.163000
H          -5.802000     -3.496000    -11.057000
C          -4.832000     -2.923000     -9.354000
H          -3.985000     -2.274000     -9.102000
H          -5.711000     -2.338000     -9.058000
C          -4.958000     -4.237000     -8.532000
C          -6.201000     -4.982000     -8.859000
C          -6.206000     -5.851000     -9.914000
H          -5.305000     -6.013000    -10.497000
C          -7.351000     -6.635000    -10.152000
H          -7.259000     -7.378000    -10.939000
C          -8.540000     -6.383000     -9.366000
H          -9.485000     -6.904000     -9.483000
C          -8.524000     -5.395000     -8.438000
H          -9.446000     -5.186000     -7.904000
C          -7.364000     -4.710000     -8.166000
H          -7.272000     -4.016000     -7.336000
C          -4.800000     -6.213000     -3.420000
C          -4.074000     -8.144000     -4.764000
C           0.378000     -8.060000     -3.593000
C          -1.889000     -2.141000     -4.481000
C           1.412000     -6.440000     -6.497000
C          -4.824000     -6.938000     -4.618000
C           0.695000     -3.027000     -5.188000
C          -1.689000     -7.807000     -2.279000
C          -2.235000     -6.940000     -8.275000
C          -1.448000     -2.267000     -5.830000
C          -3.647000     -5.055000     -8.216000
C          -1.427000     -5.782000     -8.513000
C          -0.291000     -3.463000     -7.405000
C           1.510000     -4.200000     -5.403000
C          -4.205000     -7.104000     -6.861000
C           1.554000     -6.293000     -4.074000
C          -4.395000     -4.223000     -7.191000
C          -3.682000     -3.106000     -6.492000
C           1.538000     -7.110000     -5.239000
C          -1.202000     -4.309000     -1.861000
C           0.077000     -6.150000     -2.118000
C          -1.188000     -6.577000     -1.673000
C          -3.067000     -7.757000     -2.636000
C          -4.008000     -3.051000     -5.126000
C          -3.571000     -6.528000     -7.995000
C          -3.104000     -8.522000     -3.790000
C          -0.205000     -2.680000     -6.193000
C          -3.631000     -8.186000     -6.116000
C          -0.081000     -5.802000     -8.059000
C          -3.067000     -3.249000     -2.969000
C          -0.929000     -8.485000     -3.211000
C          -2.215000     -4.572000     -8.494000
C          -3.344000     -5.446000     -1.952000
C           0.488000     -4.636000     -7.574000
C          -1.682000     -8.011000     -7.527000
C           0.854000     -4.065000     -3.232000
C           0.335000     -2.907000     -3.863000
C          -0.344000     -7.991000     -7.157000
C          -3.129000     -2.588000     -4.174000
C          -2.335000     -2.829000     -6.766000
C          -1.731000     -3.243000     -2.603000
C          -5.047000     -4.947000     -6.064000
C          -1.470000     -9.028000     -5.487000
C          -1.617000     -3.505000     -7.764000
C           0.474000     -6.874000     -7.389000
C          -3.863000     -4.359000     -2.668000
C           0.704000     -8.224000     -4.946000
C          -3.915000     -6.615000     -2.392000
C           0.881000     -6.922000     -3.023000
C          -2.386000     -8.651000     -6.473000
C          -0.206000     -8.655000     -5.885000
C          -4.879000     -6.319000     -5.882000
C          -4.926000     -4.167000     -4.865000
C           0.082000     -4.711000     -2.181000
C          -1.830000     -8.966000     -4.151000
C           1.439000     -5.009000     -6.592000
C          -0.981000     -2.481000     -3.498000
C           1.546000     -4.885000     -4.182000
C          -4.787000     -4.801000     -3.608000
C          -1.951000     -5.460000     -1.615000
$end

--------------------------------------------------------------

             Standard Nuclear Orientation (Angstroms)
    I     Atom           X                Y                Z
 ----------------------------------------------------------------
    1      O      10.9178666052    -4.0299275455    -4.2910752257
    2      C      12.2647670032    -3.7053351526    -4.7480709548
    3      H      12.8643203958    -3.1143166731    -4.0451435856
    4      H      12.2413776016    -3.1087985555    -5.6683551632
    5      H      12.8263262849    -4.6303615704    -4.9307271880
    6      O      10.1618254056    -1.7995384213    -4.3553096328
    7      C       9.9623853659    -3.0322287304    -4.2103121421
    8      C       8.5859021517    -3.5228974067    -3.7077475082
    9      H       8.5475384156    -4.5780567693    -4.0041525407
   10      H       7.8084046318    -3.0846506746    -4.3463008797
   11      C       8.4400280184    -3.2972652215    -2.1835110258
   12      H       7.4694631419    -3.7794245472    -2.0088364559
   13      H       9.2119962958    -3.8052073004    -1.5914655689
   14      C       8.3508223044    -1.8058962204    -1.8558300178
   15      H       9.3533126979    -1.3811746175    -1.9940673900
   16      H       7.6274110567    -1.4452834149    -2.5978998063
   17      C       7.8817401421    -1.5103440781    -0.4494229443
   18      C       8.6726032012    -2.2573421383     0.5890328900
   19      C       9.9402767679    -1.7575587495     0.9645635714
   20      H      10.2381213950    -0.8224343549     0.5005205296
   21      C      10.6283176916    -2.3766256040     2.0325696186
   22      H      11.5224427993    -1.8857200462     2.4072441774
   23      C      10.2172558259    -3.6469309942     2.3959321900
   24      H      10.8544026217    -4.2358340450     3.0488503759
   25      C       9.0219752197    -4.2218697728     2.0530347226
   26      H       8.7090774034    -5.1691042445     2.4827448716
   27      C       8.2349596135    -3.5072004382     1.0785870956
   28      H       7.3118882562    -3.9647297145     0.7360550083
   29      C       3.4192308763    -1.1569631898     2.8622562370
   30      C       5.0419804120     0.4878111033     3.7118817244
   31      C       2.7782707436     4.2638302173     2.3959473840
   32      C       2.7640801482    -0.2739343691    -2.1158107197
   33      C       4.7605550994     4.8466156297    -0.4659517925
   34      C       4.7772167165    -0.7189252655     3.1246666688
   35      C       2.9989275629     2.4954399472    -2.6098133395
   36      C       2.0048504844     2.1891054540     3.3444115421
   37      C       7.4129570077     2.0522358613     0.8707560391
   38      C       3.9402689283     0.2963958395    -2.6622294296
   39      C       7.3205165023    -0.1288980114    -0.1364057067
   40      C       7.2648044501     2.2795909952    -0.5008475708
   41      C       5.3933553190     2.0056279784    -2.5517964768
   42      C       3.1944704001     3.7418906564    -1.9960042256
   43      C       6.7468662107     0.1565921030     2.2273321674
   44      C       2.4278397466     4.6768469546     0.1092026910
   45      C       6.3858351410    -1.3008873465    -0.1977225168
   46      C       5.2522439092    -1.2462485989    -1.2078767260
   47      C       3.6855052826     5.0768186449     0.4795890386
   48      C       0.6403071104     1.0574583419     0.3350835117
   49      C       1.0073007701     3.0883529065     1.2837156434
   50      C       1.0782788553     2.1129117981     2.3104925206
   51      C       2.6309977009     0.9920429033     3.7917670080
   52      C       4.0608894472    -1.6792700797    -0.6508130466
   53      C       7.3773502854     0.6552221664     1.1257283859
   54      C       3.9453902564     1.3431990899     4.0466150855
   55      C       4.0976238565     1.6598607675    -2.8926894411
   56      C       6.2013867624     1.0525256306     3.1700252699
   57      C       6.5002404328     3.4155485907    -0.9355154952
   58      C       1.7951878979    -0.9968499724    -0.2257433035
   59      C       2.8673098789     3.2899425464     3.4233449880
   60      C       7.1388893187     1.0179579231    -1.1468199938
   61      C       1.4391533002    -0.3221798427     2.1203785138
   62      C       5.5539179144     3.2662061829    -1.9865856814
   63      C       6.8600589360     2.9090678578     1.8033479392
   64      C       1.2588761648     2.9084658380    -1.1348561383
   65      C       1.8162421267     1.9989793306    -2.0785629134
   66      C       6.1629761655     4.1085125787     1.3358065263
   67      C       2.8764401674    -1.2104218082    -1.1275584733
   68      C       5.1979860015    -0.2404141367    -2.1302568614
   69      C       1.0730108071     0.1178836931    -0.6500723086
   70      C       5.5675080857    -1.6540235218     1.0659909287
   71      C       5.2219029726     3.2749754457     3.2297439840
   72      C       6.1059767336     0.8847574855    -2.0982779461
   73      C       5.9538025997     4.2979592233     0.0060763326
   74      C       1.9218753386    -1.2845303806     1.1561612790
   75      C       3.9067215538     4.8793633685     1.8672142672
   76      C       2.3804525468    -0.2164142662     3.1624583433
   77      C       1.8802552330     4.1871213175     1.3298836488
   78      C       6.3159169711     2.4204129320     2.9534031054
   79      C       5.1751272830     4.3555145306     2.2861215378
   80      C       5.7671526088    -0.8760057119     2.2188462327
   81      C       4.2299393500    -1.9181850148     0.7119773937
   82      C       0.7247792064     2.4091026287     0.1025341899
   83      C       4.0620287127     2.7420285997     3.8168728970
   84      C       4.4962467218     4.1446344263    -1.6771596490
   85      C       1.7222471392     0.5926906263    -1.8268745695
   86      C       2.1488054549     3.9963577638    -1.1042944558
   87      C       3.1568483273    -1.7083505711     1.6144452121
   88      C       0.7739685983     0.8684580410     1.7214151794
   89      O      -9.3425934771     5.5006076084    -0.9432354844
   90      C     -10.3587302556     6.4992812229    -0.9978162420
   91      H     -10.1051951906     7.2882186346    -1.7158042163
   92      H     -10.5737578596     7.0165571754    -0.0552624141
   93      H     -11.2455355474     6.0671875283    -1.4781155376
   94      O      -8.9533442805     5.5096380397    -3.2216569806
   95      C      -8.7708007353     5.0912615850    -2.1068453390
   96      C      -7.6095002787     4.0544623002    -1.8212170975
   97      H      -7.9672169477     3.0463959430    -2.0665637996
   98      H      -7.4718137309     3.9320724020    -0.7396441100
   99      C      -6.3535122782     4.2654146644    -2.6624300567
  100      H      -6.6259865732     4.5185832816    -3.6952671251
  101      H      -5.7266905853     5.1031020956    -2.3343518147
  102      C      -5.4672035576     3.1334800471    -2.8062559032
  103      H      -6.0181128234     2.3725121630    -3.3715353563
  104      H      -4.6389032556     3.4084457072    -3.4701794647
  105      C      -4.7648594523     2.6481916755    -1.5065005592
  106      C      -3.9445646006     3.7185601861    -0.8832585455
  107      C      -4.5338856541     4.6022820199    -0.0230565830
  108      H      -5.5876927394     4.5125533743     0.2206099867
  109      C      -3.7320487661     5.5447454875     0.6486168623
  110      H      -4.2396461555     6.1506801308     1.3936471290
  111      C      -2.3337820374     5.6477459165     0.2890865197
  112      H      -1.6316592783     6.3555410402     0.7182772629
  113      C      -1.8403820442     4.8494235074    -0.6890861530
  114      H      -0.8039554885     4.9876323477    -0.9817281034
  115      C      -2.6257662482     3.8771570607    -1.2606442067
  116      H      -2.2316108256     3.1268536171    -1.9393829232
  117      C      -1.5731907981    -1.3343465525     0.4971771754
  118      C      -2.8369696946    -0.6101633384     2.4822702647
  119      C      -5.5910874556    -4.2840492435     2.8228561051
  120      C      -4.7943259816    -2.5529066662    -3.2870301893
  121      C      -8.3168328280    -2.7467521715     1.2951775141
  122      C      -2.2467300383    -0.3356917362     1.2116269285
  123      C      -7.1873414206    -3.5406135375    -2.1646161635
  124      C      -3.1796556040    -4.0524745287     2.3818758601
  125      C      -6.5383999683     0.9312251438     1.4419849787
  126      C      -5.9672647637    -1.7602122238    -3.1257598121
  127      C      -5.5337696452     1.6409845926    -0.5673456160
  128      C      -7.3993756773     0.5469916928     0.3642292163
  129      C      -7.7632627111    -1.1666757372    -1.8327803800
  130      C      -7.8735160643    -3.8032013945    -0.9209960544
  131      C      -4.1108987775     1.0502416793     1.4257051371
  132      C      -6.9335832012    -4.7428129011     1.1724418905
  133      C      -4.3726441568     1.2483306948    -1.4617524121
  134      C      -4.5747117809     0.1908726340    -2.5036785731
  135      C      -7.5863248965    -3.7692844631     1.9793747623
  136      C      -3.5493366260    -4.8971199732    -1.0529177312
  137      C      -4.5762273415    -5.3722189270     0.8992470781
  138      C      -3.2820289997    -4.9130247503     1.2070950278
  139      C      -2.3292166533    -2.9242881026     2.2008179161
  140      C      -3.4759311344    -0.6818177136    -2.5833632524
  141      C      -5.3509779273     1.5117926584     0.9071857102
  142      C      -2.9624378727    -1.9496186437     2.9540511688
  143      C      -7.1335579010    -2.2181961214    -2.5990738836
  144      C      -4.0193139319     0.1784576941     2.5600903887
  145      C      -8.1667391461    -0.6393080075     0.5128169947
  146      C      -2.8569942733    -2.9417546432    -2.2885137384
  147      C      -4.3033658577    -3.7496456557     3.1244914669
  148      C      -6.8586184564     0.9442432651    -0.9145114988
  149      C      -1.8528171248    -3.4320429947    -0.1230870860
  150      C      -8.3927717133    -1.4430763091    -0.5923562025
  151      C      -6.4293427662     0.0693856877     2.5634542287
  152      C      -6.0229658379    -5.1079216806    -1.1080009605
  153      C      -6.0921075117    -4.3641738588    -2.3123865327
  154      C      -7.2454695013    -1.0485995488     2.6711118485
  155      C      -3.6039099087    -1.9997544114    -2.9574999840
  156      C      -5.8160564190    -0.4437580710    -2.6537497485
  157      C      -3.6730466963    -4.0545038983    -2.1671237125
  158      C      -3.1123220741     0.8125313038    -0.7976167795
  159      C      -5.2556749309    -1.5978100405     3.6045090860
  160      C      -6.9481062686    -0.0633682719    -1.9173594045
  161      C      -8.1076061066    -1.4411820730     1.6351405963
  162      C      -1.9696839103    -2.6172828491    -1.2571479572
  163      C      -6.6740341831    -3.4148152463     3.0111103043
  164      C      -1.5970669392    -2.6621263185     0.9850745242
  165      C      -5.7108252510    -5.1119336962     1.7397018255
  166      C      -5.1797398198    -0.2822526679     3.1387584466
  167      C      -6.5160628058    -2.0898908450     3.3505250577
  168      C      -3.0327553307     0.6508243386     0.5848635968
  169      C      -2.5177973038    -0.2502398164    -1.5576824632
  170      C      -4.7217171150    -5.4148217160    -0.5331399954
  171      C      -4.1494805600    -2.4264095943     3.5145269025
  172      C      -8.4987967569    -2.7773713917    -0.1273085462
  173      C      -4.8685137338    -3.8634551469    -2.8588808496
  174      C      -7.0946604265    -4.7401954236    -0.2304976222
  175      C      -1.8006216862    -1.2822446932    -0.9081048559
  176      C      -2.7299476695    -4.5560448481     0.0234592924
 ----------------------------------------------------------------

    9   -5804.2694571359      8.41E-06 Convergence criterion met
 Total energy in the final basis set = -5804.2694571359

                    Orbital Energies (a.u.)
 --------------------------------------------------------------

 Alpha MOs
 -- Occupied --
-19.204 -19.200 -19.140 -19.139 -10.325 -10.322 -10.252 -10.246
-10.240 -10.238 -10.236 -10.236 -10.234 -10.231 -10.229 -10.228
-10.228 -10.226 -10.225 -10.224 -10.224 -10.223 -10.223 -10.222
-10.222 -10.221 -10.221 -10.221 -10.221 -10.220 -10.220 -10.219
-10.219 -10.219 -10.218 -10.218 -10.218 -10.218 -10.218 -10.218
-10.218 -10.218 -10.217 -10.217 -10.217 -10.217 -10.217 -10.217
-10.217 -10.217 -10.216 -10.216 -10.216 -10.216 -10.216 -10.216
-10.216 -10.216 -10.215 -10.215 -10.215 -10.215 -10.215 -10.215
-10.215 -10.215 -10.215 -10.215 -10.214 -10.214 -10.214 -10.214
-10.214 -10.214 -10.214 -10.214 -10.214 -10.214 -10.214 -10.213
-10.213 -10.213 -10.213 -10.213 -10.213 -10.213 -10.213 -10.213
-10.213 -10.213 -10.212 -10.212 -10.212 -10.212 -10.212 -10.212
-10.212 -10.212 -10.212 -10.211 -10.211 -10.211 -10.211 -10.211
-10.211 -10.211 -10.211 -10.211 -10.211 -10.210 -10.210 -10.210
-10.210 -10.210 -10.210 -10.209 -10.209 -10.208 -10.208 -10.208
-10.208 -10.208 -10.208 -10.207 -10.207 -10.207 -10.206 -10.206
-10.206 -10.204 -10.204 -10.202 -10.202 -10.202 -10.202 -10.201
-10.201 -10.200 -10.199 -10.198 -10.196 -10.196 -10.195 -10.193
-10.192 -10.190 -10.187 -10.182  -1.101  -1.082  -1.024  -0.999
 -0.981  -0.981  -0.966  -0.963  -0.962  -0.960  -0.959  -0.957
 -0.932  -0.930  -0.928  -0.926  -0.926  -0.923  -0.921  -0.920
 -0.919  -0.917  -0.896  -0.896  -0.890  -0.886  -0.884  -0.882
 -0.874  -0.872  -0.854  -0.854  -0.842  -0.840  -0.839  -0.838
 -0.836  -0.831  -0.821  -0.820  -0.806  -0.806  -0.798  -0.796
 -0.795  -0.795  -0.793  -0.791  -0.789  -0.788  -0.784  -0.783
 -0.772  -0.769  -0.768  -0.766  -0.766  -0.765  -0.763  -0.761
 -0.751  -0.749  -0.745  -0.743  -0.734  -0.731  -0.715  -0.714
 -0.714  -0.713  -0.711  -0.711  -0.711  -0.710  -0.709  -0.708
 -0.705  -0.705  -0.704  -0.704  -0.702  -0.701  -0.671  -0.669
 -0.659  -0.657  -0.655  -0.653  -0.646  -0.646  -0.631  -0.630
 -0.628  -0.625  -0.624  -0.623  -0.621  -0.620  -0.616  -0.615
 -0.613  -0.613  -0.613  -0.612  -0.611  -0.610  -0.609  -0.608
 -0.607  -0.602  -0.600  -0.598  -0.573  -0.570  -0.563  -0.562
 -0.560  -0.560  -0.557  -0.556  -0.555  -0.553  -0.552  -0.548
 -0.536  -0.536  -0.532  -0.531  -0.529  -0.527  -0.523  -0.523
 -0.522  -0.521  -0.519  -0.519  -0.514  -0.513  -0.512  -0.512
 -0.505  -0.504  -0.501  -0.500  -0.492  -0.490  -0.485  -0.484
 -0.482  -0.482  -0.481  -0.481  -0.478  -0.477  -0.475  -0.472
 -0.472  -0.471  -0.470  -0.469  -0.468  -0.467  -0.466  -0.466
 -0.465  -0.464  -0.463  -0.462  -0.462  -0.461  -0.458  -0.457
 -0.457  -0.456  -0.452  -0.450  -0.448  -0.445  -0.444  -0.442
 -0.442  -0.440  -0.439  -0.438  -0.437  -0.436  -0.435  -0.433
 -0.431  -0.429  -0.428  -0.427  -0.427  -0.425  -0.424  -0.423
 -0.422  -0.422  -0.421  -0.420  -0.419  -0.419  -0.417  -0.416
 -0.416  -0.416  -0.415  -0.414  -0.414  -0.413  -0.412  -0.410
 -0.410  -0.409  -0.408  -0.407  -0.403  -0.399  -0.397  -0.395
 -0.392  -0.389  -0.388  -0.388  -0.387  -0.387  -0.383  -0.383
 -0.378  -0.375  -0.373  -0.371  -0.368  -0.367  -0.366  -0.366
 -0.365  -0.363  -0.363  -0.361  -0.360  -0.359  -0.358  -0.358
 -0.357  -0.356  -0.355  -0.354  -0.354  -0.353  -0.351  -0.350
 -0.350  -0.349  -0.349  -0.347  -0.347  -0.344  -0.344  -0.343
 -0.342  -0.342  -0.341  -0.338  -0.337  -0.334  -0.333  -0.332
 -0.331  -0.330  -0.329  -0.328  -0.325  -0.324  -0.322  -0.320
 -0.309  -0.307  -0.303  -0.301  -0.286  -0.281  -0.274  -0.271
 -0.270  -0.269  -0.267  -0.265  -0.265  -0.264  -0.263  -0.262
 -0.262  -0.261  -0.260  -0.258  -0.257  -0.256  -0.255  -0.254
 -0.250  -0.247  -0.243  -0.240  -0.223  -0.217  -0.213  -0.210
 -0.210  -0.209  -0.206  -0.204  -0.201  -0.196

          Ground-State Mulliken Net Atomic Charges

     Atom                 Charge (a.u.)
  ----------------------------------------
      1 O                    -0.463195
      2 C                    -0.089768
      3 H                     0.129553
      4 H                     0.134423
      5 H                     0.127401
      6 O                    -0.477263
      7 C                     0.582042
      8 C                    -0.250039
      9 H                     0.116695
     10 H                     0.134447
     11 C                    -0.196612
     12 H                     0.107691
     13 H                     0.127581
     14 C                    -0.159754
     15 H                     0.130915
     16 H                     0.110482
     17 C                     0.006469
     18 C                     0.090655
     19 C                    -0.111655
     20 H                     0.095135
     21 C                    -0.084111
     22 H                     0.095886
     23 C                    -0.082884
     24 H                     0.082894
     25 C                    -0.083155
     26 H                     0.098462
     27 C                    -0.117941
     28 H                     0.092127
     29 C                    -0.034193
     30 C                     0.002366
     31 C                     0.034846
     32 C                    -0.000051
     33 C                    -0.021372
     34 C                     0.012941
     35 C                     0.012839
     36 C                    -0.012933
     37 C                     0.021944
     38 C                    -0.036199
     39 C                    -0.082459
     40 C                    -0.004060
     41 C                     0.007591
     42 C                    -0.015644
     43 C                     0.002828
     44 C                     0.009833
     45 C                    -0.093274
     46 C                     0.032035
     47 C                    -0.000881
     48 C                     0.029791
     49 C                    -0.011959
     50 C                    -0.001076
     51 C                     0.008659
     52 C                     0.015036
     53 C                     0.036059
     54 C                    -0.003809
     55 C                     0.013669
     56 C                    -0.015177
     57 C                    -0.015018
     58 C                    -0.010740
     59 C                     0.002089
     60 C                     0.008292
     61 C                    -0.014558
     62 C                    -0.005317
     63 C                    -0.020198
     64 C                    -0.029441
     65 C                    -0.006552
     66 C                     0.004256
     67 C                     0.026162
     68 C                    -0.018388
     69 C                    -0.003507
     70 C                    -0.014091
     71 C                    -0.011611
     72 C                     0.022637
     73 C                     0.033536
     74 C                    -0.008306
     75 C                    -0.029592
     76 C                     0.014775
     77 C                    -0.019332
     78 C                     0.017502
     79 C                    -0.010132
     80 C                     0.017565
     81 C                     0.009525
     82 C                     0.017547
     83 C                     0.000086
     84 C                     0.003273
     85 C                    -0.021647
     86 C                     0.008229
     87 C                     0.015313
     88 C                    -0.011600
     89 O                    -0.453005
     90 C                    -0.098159
     91 H                     0.130954
     92 H                     0.128804
     93 H                     0.126148
     94 O                    -0.452991
     95 C                     0.595249
     96 C                    -0.262992
     97 H                     0.127729
     98 H                     0.119488
     99 C                    -0.173626
    100 H                     0.124331
    101 H                     0.110086
    102 C                    -0.190442
    103 H                     0.104762
    104 H                     0.108488
    105 C                     0.005229
    106 C                     0.107832
    107 C                    -0.100239
    108 H                     0.093447
    109 C                    -0.110022
    110 H                     0.092196
    111 C                    -0.084440
    112 H                     0.090945
    113 C                    -0.082868
    114 H                     0.093360
    115 C                    -0.105283
    116 H                     0.089495
    117 C                    -0.027243
    118 C                    -0.031528
    119 C                     0.006418
    120 C                    -0.021037
    121 C                     0.004356
    122 C                     0.024772
    123 C                     0.008589
    124 C                    -0.044571
    125 C                    -0.011174
    126 C                     0.014002
    127 C                    -0.086018
    128 C                    -0.006191
    129 C                    -0.010300
    130 C                    -0.015736
    131 C                     0.014532
    132 C                     0.007807
    133 C                    -0.102702
    134 C                     0.036801
    135 C                    -0.034295
    136 C                    -0.005702
    137 C                    -0.002549
    138 C                    -0.017381
    139 C                     0.026008
    140 C                    -0.011580
    141 C                     0.026138
    142 C                    -0.004247
    143 C                    -0.007951
    144 C                    -0.017841
    145 C                     0.012957
    146 C                    -0.015270
    147 C                     0.013119
    148 C                     0.008419
    149 C                     0.002331
    150 C                    -0.012749
    151 C                     0.007455
    152 C                    -0.015546
    153 C                    -0.001637
    154 C                    -0.015564
    155 C                     0.039429
    156 C                    -0.001324
    157 C                     0.012876
    158 C                     0.008120
    159 C                    -0.005304
    160 C                     0.020881
    161 C                     0.028037
    162 C                     0.003056
    163 C                     0.010258
    164 C                    -0.010172
    165 C                     0.005659
    166 C                     0.005813
    167 C                     0.003126
    168 C                     0.035997
    169 C                    -0.022222
    170 C                    -0.019165
    171 C                     0.013524
    172 C                    -0.028171
    173 C                    -0.006018
    174 C                     0.022416
    175 C                     0.022486
    176 C                     0.026738
  ----------------------------------------
  Sum of atomic charges =     0.000000

                    Cartesian Multipole Moments
 -----------------------------------------------------------------
    Charge (ESU x 10^10)
                 0.0000
    Dipole Moment (Debye)
         X       3.7462      Y      -1.2516      Z       0.6929
       Tot       4.0101
    Quadrupole Moments (Debye-Ang)
        XX    -751.3218     XY     -48.8788     YY    -791.3284
        XZ     -16.3391     YZ      16.7858     ZZ    -814.5246

 Total job time:  850.83s(wall), 7239.98s(cpu)
        *  Thank you very much for using Q-Chem.  Have a nice day.  *
