 Q-Chem 4.4, Q-Chem, Inc., Pleasanton, CA (2016)
 Q-Chem 4.4.2 for Intel X86 Linux

User input:
--------------------------------------------------------------
$comment
SP
$end

$rem
MEM_STATIC 5000
MEM_TOTAL 20000
JOBTYPE SP
EXCHANGE B3LYP
BASIS 6-31g(d,p)
$end

$molecule
0 1
O           3.367000    -10.691000     -5.970000
C           4.782000    -10.584000     -5.629000
H           4.998000    -10.109000     -4.664000
H           5.413000    -10.136000     -6.407000
H           5.158000    -11.606000     -5.495000
O           3.722000    -12.535000     -7.419000
C           3.019000    -11.733000     -6.829000
C           1.470000    -11.660000     -7.038000
H           1.133000    -10.636000     -7.245000
H           1.132000    -11.936000     -6.032000
C           0.743000    -12.592000     -8.084000
H           1.026000    -12.324000     -9.110000
H           1.120000    -13.617000     -7.983000
C          -0.773000    -12.513000     -7.935000
H          -0.978000    -12.932000     -6.942000
H          -1.003000    -11.441000     -7.968000
C          -1.518000    -13.189000     -9.064000
C          -1.787000    -14.594000     -8.740000
C          -2.936000    -14.847000     -7.955000
H          -3.559000    -14.012000     -7.648000
C          -3.287000    -16.158000     -7.663000
H          -4.166000    -16.409000     -7.076000
C          -2.391000    -17.222000     -7.944000
H          -2.751000    -18.222000     -7.722000
C          -1.208000    -16.972000     -8.657000
H          -0.495000    -17.782000     -8.777000
C          -1.017000    -15.647000     -9.091000
H          -0.173000    -15.356000     -9.710000
C          -2.445000    -14.387000    -14.300000
C          -4.703000    -14.309000    -13.360000
C          -5.885000    -10.475000    -15.486000
C           0.058000    -10.135000    -13.298000
C          -5.230000     -8.581000    -12.723000
C          -3.319000    -14.657000    -13.235000
C          -1.791000     -8.040000    -13.374000
C          -4.621000    -12.394000    -16.222000
C          -4.834000    -11.674000    -10.294000
C          -0.348000     -9.623000    -12.103000
C          -2.595000    -12.370000     -9.774000
C          -4.103000    -10.466000    -10.131000
C          -2.178000     -8.799000    -11.168000
C          -3.132000     -7.732000    -13.560000
C          -4.044000    -13.704000    -11.268000
C          -4.734000     -8.578000    -15.131000
C          -1.333000    -12.930000    -10.540000
C          -0.426000    -11.922000    -11.245000
C          -5.629000     -8.793000    -14.081000
C          -1.654000    -10.641000    -16.352000
C          -3.794000    -10.203000    -16.647000
C          -3.680000    -11.533000    -16.820000
C          -4.223000    -13.567000    -15.660000
C          -0.015000    -12.387000    -12.492000
C          -3.944000    -12.749000    -10.247000
C          -5.136000    -13.762000    -14.580000
C          -1.275000     -8.588000    -12.142000
C          -5.146000    -13.729000    -12.110000
C          -4.506000     -9.353000    -10.813000
C          -0.093000    -11.794000    -14.820000
C          -5.757000    -11.888000    -15.658000
C          -2.728000    -10.826000     -9.882000
C          -1.924000    -13.004000    -15.989000
C          -3.562000     -8.396000    -11.256000
C          -5.896000    -11.687000    -11.227000
C          -2.320000     -8.466000    -15.595000
C          -1.261000     -8.524000    -14.608000
C          -6.319000    -10.471000    -11.885000
C           0.372000    -11.492000    -13.512000
C          -0.655000    -10.542000    -11.107000
C          -0.573000    -10.670000    -15.457000
C          -1.566000    -13.943000    -11.625000
C          -6.534000    -12.174000    -13.375000
C          -1.800000    -10.009000    -10.508000
C          -5.614000     -9.326000    -11.617000
C          -0.836000    -12.958000    -15.082000
C          -6.341000     -9.957000    -14.280000
C          -2.883000    -13.923000    -15.510000
C          -4.899000     -9.686000    -15.898000
C          -6.106000    -12.717000    -12.164000
C          -6.619000    -10.804000    -13.220000
C          -2.906000    -14.285000    -11.938000
C          -0.742000    -13.532000    -12.700000
C          -2.514000     -9.579000    -16.504000
C          -6.098000    -12.727000    -14.586000
C          -4.027000     -7.911000    -12.493000
C          -0.410000     -9.642000    -14.502000
C          -3.484000     -8.011000    -14.900000
C          -1.200000    -13.843000    -14.030000
C          -2.305000    -11.817000    -16.656000
O          -3.094000     -4.648000    -13.608000
C          -2.923000     -4.583000    -15.022000
H          -3.676000     -3.935000    -15.486000
H          -2.986000     -5.538000    -15.557000
H          -2.009000     -4.015000    -15.236000
O          -3.618000     -2.408000    -13.383000
C          -3.397000     -3.505000    -12.937000
C          -3.636000     -3.808000    -11.402000
H          -2.757000     -3.476000    -10.835000
H          -3.566000     -4.887000    -11.216000
C          -4.826000     -3.073000    -10.791000
H          -4.867000     -2.041000    -11.163000
H          -5.802000     -3.496000    -11.057000
C          -4.832000     -2.923000     -9.354000
H          -3.985000     -2.274000     -9.102000
H          -5.711000     -2.338000     -9.058000
C          -4.958000     -4.237000     -8.532000
C          -6.201000     -4.982000     -8.859000
C          -6.206000     -5.851000     -9.914000
H          -5.305000     -6.013000    -10.497000
C          -7.351000     -6.635000    -10.152000
H          -7.259000     -7.378000    -10.939000
C          -8.540000     -6.383000     -9.366000
H          -9.485000     -6.904000     -9.483000
C          -8.524000     -5.395000     -8.438000
H          -9.446000     -5.186000     -7.904000
C          -7.364000     -4.710000     -8.166000
H          -7.272000     -4.016000     -7.336000
C          -4.800000     -6.213000     -3.420000
C          -4.074000     -8.144000     -4.764000
C           0.378000     -8.060000     -3.593000
C          -1.889000     -2.141000     -4.481000
C           1.412000     -6.440000     -6.497000
C          -4.824000     -6.938000     -4.618000
C           0.695000     -3.027000     -5.188000
C          -1.689000     -7.807000     -2.279000
C          -2.235000     -6.940000     -8.275000
C          -1.448000     -2.267000     -5.830000
C          -3.647000     -5.055000     -8.216000
C          -1.427000     -5.782000     -8.513000
C          -0.291000     -3.463000     -7.405000
C           1.510000     -4.200000     -5.403000
C          -4.205000     -7.104000     -6.861000
C           1.554000     -6.293000     -4.074000
C          -4.395000     -4.223000     -7.191000
C          -3.682000     -3.106000     -6.492000
C           1.538000     -7.110000     -5.239000
C          -1.202000     -4.309000     -1.861000
C           0.077000     -6.150000     -2.118000
C          -1.188000     -6.577000     -1.673000
C          -3.067000     -7.757000     -2.636000
C          -4.008000     -3.051000     -5.126000
C          -3.571000     -6.528000     -7.995000
C          -3.104000     -8.522000     -3.790000
C          -0.205000     -2.680000     -6.193000
C          -3.631000     -8.186000     -6.116000
C          -0.081000     -5.802000     -8.059000
C          -3.067000     -3.249000     -2.969000
C          -0.929000     -8.485000     -3.211000
C          -2.215000     -4.572000     -8.494000
C          -3.344000     -5.446000     -1.952000
C           0.488000     -4.636000     -7.574000
C          -1.682000     -8.011000     -7.527000
C           0.854000     -4.065000     -3.232000
C           0.335000     -2.907000     -3.863000
C          -0.344000     -7.991000     -7.157000
C          -3.129000     -2.588000     -4.174000
C          -2.335000     -2.829000     -6.766000
C          -1.731000     -3.243000     -2.603000
C          -5.047000     -4.947000     -6.064000
C          -1.470000     -9.028000     -5.487000
C          -1.617000     -3.505000     -7.764000
C           0.474000     -6.874000     -7.389000
C          -3.863000     -4.359000     -2.668000
C           0.704000     -8.224000     -4.946000
C          -3.915000     -6.615000     -2.392000
C           0.881000     -6.922000     -3.023000
C          -2.386000     -8.651000     -6.473000
C          -0.206000     -8.655000     -5.885000
C          -4.879000     -6.319000     -5.882000
C          -4.926000     -4.167000     -4.865000
C           0.082000     -4.711000     -2.181000
C          -1.830000     -8.966000     -4.151000
C           1.439000     -5.009000     -6.592000
C          -0.981000     -2.481000     -3.498000
C           1.546000     -4.885000     -4.182000
C          -4.787000     -4.801000     -3.608000
C          -1.951000     -5.460000     -1.615000
$end

--------------------------------------------------------------

             Standard Nuclear Orientation (Angstroms)
    I     Atom           X                Y                Z
 ----------------------------------------------------------------
    1      O       2.0255159951     6.1076110023     2.7693859837
    2      C       2.5466473929     6.9351029463     3.8527299498
    3      H       3.6214667101     7.1494980799     3.8047282619
    4      H       2.2861690677     6.5935057744     4.8624880467
    5      H       2.0884322141     7.9265316324     3.7482119595
    6      O      -0.1772662961     6.9543132309     3.0077292517
    7      C       0.6761844837     6.2775064082     2.4608587998
    8      C       0.3494300933     5.3105019975     1.2748802848
    9      H       0.7564735429     4.3049836281     1.4429351538
   10      H       0.9319054792     5.7879820169     0.4778914166
   11      C      -1.1316279521     5.1158985653     0.7651101697
   12      H      -1.7419846458     4.6059272293     1.5214057090
   13      H      -1.6175300804     6.0949543141     0.6739840891
   14      C      -1.1681381397     4.3253161227    -0.5388623790
   15      H      -0.6641276008     4.9695674174    -1.2699907165
   16      H      -0.5808623499     3.4213999140    -0.3358460385
   17      C      -2.5632708177     3.9001297236    -0.9381909866
   18      C      -3.1874214845     4.9110861367    -1.7982869555
   19      C      -2.8731327421     4.8422888654    -3.1755757857
   20      H      -2.2123560581     4.0551304811    -3.5268005741
   21      C      -3.4769510869     5.7280002708    -4.0576782246
   22      H      -3.2816936928     5.7103131627    -5.1262158778
   23      C      -4.2184945280     6.8353249379    -3.5700119384
   24      H      -4.6919085798     7.4617813524    -4.3198889259
   25      C      -4.4733009378     6.9570899350    -2.1950192188
   26      H      -4.9596686279     7.8592458212    -1.8366475859
   27      C      -3.9942897287     5.9119600435    -1.3834073834
   28      H      -4.1954027867     5.8679119567    -0.3167343764
   29      C      -7.5341619002     1.8793285074     0.0193231335
   30      C      -7.0462201944     1.0576482405    -2.2334534712
   31      C      -6.5767238772    -3.2810292463    -0.9796564886
   32      C      -3.8577879588     0.6173972553     3.2193733140
   33      C      -3.1737215358    -3.0299833778    -0.8961038937
   34      C      -6.9727850973     2.0958659115    -1.2491281418
   35      C      -2.9051093855    -1.8947356286     2.4478852003
   36      C      -8.1416252494    -1.5746250761    -0.3005235831
   37      C      -3.0637103317     0.5007539743    -2.6696024940
   38      C      -2.6620547795     0.5811494336     2.5682870989
   39      C      -2.7742548273     2.4204659092    -1.2557925358
   40      C      -2.1125306911     0.0972764985    -1.6935608875
   41      C      -1.6731307724    -0.5502767839     0.9422474246
   42      C      -3.0449492717    -2.9093966320     1.5105224880
   43      C      -4.9459055601     1.9273069596    -2.3290680575
   44      C      -5.0045401810    -3.8678542447     0.5147697714
   45      C      -3.5468452120     3.1395425094    -0.0814702033
   46      C      -3.3767541968     2.5764723880     1.3291180020
   47      C      -4.4247464754    -3.7086282500    -0.7454827198
   48      C      -6.7970199588    -1.3188693179     2.8648553207
   49      C      -7.0508832392    -2.8989603011     1.3491591376
   50      C      -7.9709449522    -1.9657107098     1.0419838706
   51      C      -8.3501639615    -0.2683122186    -0.6171232100
   52      C      -4.5845923767     2.5580155541     2.0226173002
   53      C      -3.5540546625     1.7623542972    -2.3262935041
   54      C      -7.7370970222    -0.1192410046    -1.8977170961
   55      C      -2.1943437254    -0.6677497735     2.1764042843
   56      C      -5.7711984498     0.9782430751    -2.9140145416
   57      C      -2.0353038316    -1.2234650183    -1.3530027309
   58      C      -6.0742453909     1.0307276147     3.1297046713
   59      C      -7.5439876198    -2.2805171657    -1.3050999225
   60      C      -1.9497341943     1.1958685507    -0.7722472582
   61      C      -7.9659396674     0.3949502222     1.6462958026
   62      C      -1.6843606149    -1.6109829604    -0.0377450744
   63      C      -3.9482276066    -0.4772357427    -3.1791781057
   64      C      -4.9823481310    -2.8825535885     2.7695261063
   65      C      -4.0982979122    -1.8307131610     3.2289833141
   66      C      -3.7928731426    -1.8713264426    -2.8285713305
   67      C      -4.7998171828     1.6570764713     3.0871270710
   68      C      -2.4695370563     1.5306413245     1.5721806410
   69      C      -5.9651638649    -0.3180994026     3.3910701206
   70      C      -5.0416625844     3.2464583312    -0.1899737980
   71      C      -6.0190316553    -1.4457711359    -3.0007774779
   72      C      -1.8292839552     0.8166261170     0.5552375501
   73      C      -2.8002021043    -2.1955885001    -1.9401275631
   74      C      -7.0786466085     1.3512207471     2.2001610487
   75      C      -5.3753579600    -3.3430057039    -1.6750519528
   76      C      -8.2676695054     0.7637546451     0.3171511895
   77      C      -6.2966614415    -3.5119597739     0.2981138834
   78      C      -5.3335125604    -0.2784939064    -3.3355631408
   79      C      -5.0852838791    -2.4005142854    -2.6476052694
   80      C      -5.6718961599     2.6395929027    -1.3057932242
   81      C      -5.5328811567     2.8980009177     1.0909648209
   82      C      -6.3932819244    -2.6031784458     2.5854028857
   83      C      -7.2480184891    -1.3716069346    -2.3325581773
   84      C      -2.4301303868    -2.7681820853     0.2560858851
   85      C      -4.5731334729    -0.5320652955     3.4999185681
   86      C      -4.3157785006    -3.5070195280     1.6692201406
   87      C      -6.8291300824     2.2717635461     1.1452831134
   88      C      -7.8295181052    -0.9602716446     2.0254815742
   89      O      -1.2254622120    -5.1182939883     2.6616277434
   90      C      -2.2785329317    -5.7191746843     3.4118586735
   91      H      -2.3552185714    -6.7928744573     3.2032990654
   92      H      -3.2822935363    -5.3130182965     3.2394619298
   93      H      -1.9846642052    -5.7397389364     4.4687570996
   94      O       0.2276755365    -6.8959830836     2.9281106965
   95      C      -0.0501922674    -5.7905965168     2.5381414391
   96      C       0.9462972104    -5.0001813842     1.5961182766
   97      H       1.7095304884    -4.5142058645     2.2171309638
   98      H       0.4541865322    -4.1061261922     1.1933411745
   99      C       1.7113554584    -5.8770944324     0.6085174550
  100      H       2.0324438774    -6.8069931759     1.0956309470
  101      H       1.1178936880    -6.2119946320    -0.2504970870
  102      C       2.9336149903    -5.3323048585     0.0637322157
  103      H       3.6346363062    -5.2337728265     0.9009744466
  104      H       3.4015512584    -6.0809922547    -0.5866406249
  105      C       2.7757556499    -4.0837218422    -0.8496553691
  106      C       1.9053267327    -4.3572438309    -2.0220640955
  107      C       0.5509447262    -4.2190865041    -1.9005201378
  108      H       0.1137121368    -3.8923672326    -0.9624283617
  109      C      -0.2597168315    -4.3722671056    -3.0414357974
  110      H      -1.3142357579    -4.1507529666    -2.9043105988
  111      C       0.3533536857    -4.8231799183    -4.2726316292
  112      H      -0.1773737056    -5.0035970595    -5.2021116405
  113      C       1.6805400704    -5.0985978238    -4.2901038248
  114      H       2.1045782655    -5.4924081653    -5.2088127144
  115      C       2.4605406950    -4.8511261230    -3.1859454200
  116      H       3.5439803465    -4.9206238947    -3.2040722332
  117      C       5.6403665746    -0.2547634671    -3.5320360304
  118      C       3.5174111174     0.8983507873    -3.0571037791
  119      C       5.0826518567     3.7274384675     0.2208354097
  120      C       7.6363237267    -2.1128226487     0.7974670733
  121      C       3.9034468518     1.7907594416     2.8638492021
  122      C       4.2572032692    -0.2949253821    -3.3160469308
  123      C       6.8901078377    -0.4341701038     2.9392393489
  124      C       5.9959494320     3.0521142975    -1.9638656693
  125      C       1.7167406346    -0.5915606115     0.3628973665
  126      C       6.5556593613    -2.4045342634     1.6790717826
  127      C       2.7077932243    -2.6606585443    -0.1729183751
  128      C       2.3319628804    -1.1013879181     1.5511943436
  129      C       4.7492942950    -1.6547691035     2.8726326114
  130      C       6.1243712384     0.7384093852     3.2929112347
  131      C       2.4713146533    -0.8715347455    -1.9304461609
  132      C       5.9209555832     2.8656352904     2.0349931058
  133      C       3.9162475024    -3.1843686404    -0.9263896704
  134      C       5.2329751463    -3.2878114985    -0.2191507527
  135      C       4.5096170909     2.9105956563     2.2112662623
  136      C       8.4911541464     0.9969707385    -0.4812209428
  137      C       7.3527485274     2.8739261423     0.0405472613
  138      C       7.2790538062     2.7132385343    -1.3556359576
  139      C       5.5614153290     2.1245402080    -2.9536229232
  140      C       6.2996796359    -2.8766979666    -1.0366984245
  141      C       2.0074341415    -1.4654962374    -0.7255757874
  142      C       4.1871909309     2.1261929091    -2.7809539553
  143      C       6.1865689838    -1.6169321573     2.7235057038
  144      C       2.4850984921     0.5462132688    -2.1426384644
  145      C       2.8567405204    -0.1679775968     2.4847818332
  146      C       8.0064215587    -1.2535349858    -1.2090583582
  147      C       4.9549070340     3.5143709040    -1.1838287757
  148      C       2.9689785057    -2.3755451411     1.3142566637
  149      C       7.4519023253     0.6360238941    -2.6442944569
  150      C       4.0150418144    -0.4802569819     3.1771413483
  151      C       1.7367061522     0.8085737703     0.1357870606
  152      C       7.8299581549     1.2847965732     1.8949712106
  153      C       7.9590089779    -0.1062586308     2.1332930615
  154      C       2.2182176203     1.6708189175     1.1116067224
  155      C       7.4451360877    -2.3089034549    -0.5279225314
  156      C       5.3622942952    -2.8984136379     1.1216922150
  157      C       8.4761050427    -0.3841526831    -0.2382546516
  158      C       4.2833270250    -2.4972032846    -2.1962185557
  159      C       2.7624391009     2.5788559263    -0.8912504295
  160      C       4.2648365239    -2.4899050734     1.8944866204
  161      C       2.8148741034     1.1983602395     2.2911917506
  162      C       7.4712937788    -0.7429815492    -2.3961937538
  163      C       3.9607303516     3.4002607900     0.9941580484
  164      C       6.3270125344     0.9699135329    -3.3579769266
  165      C       6.2823825612     3.4390448803     0.8128053207
  166      C       2.0897726641     1.3748241638    -1.1175431154
  167      C       2.8406239176     2.7990937774     0.4654409221
  168      C       3.6251052534    -1.3434384895    -2.6196602839
  169      C       5.7132008826    -2.4446320441    -2.3117132129
  170      C       8.1680204540     1.8179995598     0.5837467992
  171      C       3.8051775050     2.9532922835    -1.7224146942
  172      C       4.6916075079     0.7376036799     3.4358463365
  173      C       8.3277845001    -0.9408707299     1.0314835234
  174      C       6.6804021789     1.8044957734     2.5748225174
  175      C       6.3419320027    -1.3441385459    -2.9401535354
  176      C       7.8942829978     1.5366487578    -1.6208746039
 ----------------------------------------------------------------

    9   -5804.2122364780      8.24E-06 Convergence criterion met
 Total energy in the final basis set = -5804.2122364780

                    Orbital Energies (a.u.)
 --------------------------------------------------------------

 Alpha MOs
 -- Occupied --
-19.200 -19.199 -19.147 -19.140 -10.327 -10.321 -10.247 -10.246
-10.245 -10.242 -10.241 -10.240 -10.236 -10.233 -10.233 -10.231
-10.231 -10.230 -10.229 -10.228 -10.228 -10.228 -10.227 -10.226
-10.226 -10.225 -10.225 -10.224 -10.224 -10.224 -10.223 -10.223
-10.223 -10.222 -10.222 -10.222 -10.222 -10.221 -10.221 -10.221
-10.221 -10.221 -10.220 -10.220 -10.220 -10.220 -10.220 -10.220
-10.220 -10.219 -10.219 -10.219 -10.219 -10.218 -10.218 -10.218
-10.218 -10.218 -10.218 -10.217 -10.217 -10.217 -10.217 -10.217
-10.217 -10.217 -10.217 -10.216 -10.216 -10.216 -10.216 -10.216
-10.216 -10.216 -10.216 -10.216 -10.216 -10.216 -10.216 -10.215
-10.215 -10.215 -10.215 -10.215 -10.215 -10.215 -10.215 -10.215
-10.215 -10.215 -10.215 -10.214 -10.214 -10.214 -10.214 -10.214
-10.214 -10.214 -10.214 -10.214 -10.214 -10.213 -10.213 -10.213
-10.213 -10.213 -10.212 -10.212 -10.212 -10.212 -10.212 -10.212
-10.211 -10.211 -10.211 -10.211 -10.211 -10.211 -10.211 -10.211
-10.210 -10.210 -10.210 -10.209 -10.209 -10.208 -10.208 -10.208
-10.205 -10.204 -10.203 -10.203 -10.202 -10.202 -10.201 -10.199
-10.199 -10.198 -10.197 -10.197 -10.196 -10.196 -10.194 -10.193
-10.192 -10.192 -10.190 -10.182  -1.099  -1.085  -1.023  -1.017
 -0.989  -0.984  -0.972  -0.969  -0.968  -0.963  -0.963  -0.959
 -0.938  -0.935  -0.934  -0.931  -0.930  -0.928  -0.928  -0.921
 -0.921  -0.919  -0.903  -0.899  -0.894  -0.893  -0.891  -0.884
 -0.880  -0.874  -0.856  -0.855  -0.846  -0.843  -0.843  -0.841
 -0.840  -0.834  -0.825  -0.823  -0.808  -0.802  -0.801  -0.800
 -0.799  -0.799  -0.798  -0.796  -0.793  -0.791  -0.786  -0.786
 -0.776  -0.772  -0.771  -0.770  -0.768  -0.768  -0.765  -0.764
 -0.752  -0.751  -0.745  -0.744  -0.735  -0.733  -0.720  -0.719
 -0.717  -0.717  -0.716  -0.715  -0.713  -0.712  -0.712  -0.711
 -0.709  -0.708  -0.707  -0.705  -0.700  -0.700  -0.676  -0.672
 -0.664  -0.660  -0.660  -0.655  -0.649  -0.648  -0.637  -0.633
 -0.630  -0.628  -0.628  -0.626  -0.624  -0.622  -0.622  -0.619
 -0.618  -0.617  -0.615  -0.615  -0.614  -0.611  -0.611  -0.610
 -0.607  -0.605  -0.601  -0.601  -0.572  -0.568  -0.566  -0.566
 -0.562  -0.562  -0.561  -0.559  -0.558  -0.556  -0.555  -0.551
 -0.541  -0.539  -0.537  -0.535  -0.530  -0.530  -0.527  -0.526
 -0.526  -0.525  -0.522  -0.522  -0.519  -0.518  -0.516  -0.515
 -0.508  -0.505  -0.502  -0.499  -0.493  -0.492  -0.490  -0.487
 -0.486  -0.485  -0.484  -0.482  -0.479  -0.479  -0.479  -0.475
 -0.474  -0.474  -0.474  -0.472  -0.471  -0.470  -0.470  -0.469
 -0.468  -0.467  -0.467  -0.465  -0.463  -0.462  -0.462  -0.461
 -0.460  -0.459  -0.455  -0.454  -0.451  -0.449  -0.447  -0.445
 -0.444  -0.444  -0.442  -0.441  -0.439  -0.438  -0.437  -0.435
 -0.433  -0.431  -0.431  -0.429  -0.429  -0.428  -0.427  -0.426
 -0.425  -0.424  -0.424  -0.423  -0.423  -0.421  -0.421  -0.420
 -0.419  -0.418  -0.418  -0.417  -0.415  -0.414  -0.414  -0.413
 -0.413  -0.411  -0.411  -0.411  -0.402  -0.401  -0.399  -0.399
 -0.395  -0.394  -0.393  -0.392  -0.390  -0.389  -0.388  -0.386
 -0.380  -0.376  -0.375  -0.374  -0.374  -0.370  -0.370  -0.369
 -0.368  -0.367  -0.365  -0.363  -0.361  -0.361  -0.359  -0.358
 -0.357  -0.357  -0.356  -0.355  -0.354  -0.353  -0.352  -0.352
 -0.351  -0.350  -0.349  -0.349  -0.348  -0.347  -0.346  -0.345
 -0.345  -0.344  -0.341  -0.340  -0.339  -0.336  -0.335  -0.334
 -0.333  -0.332  -0.332  -0.329  -0.328  -0.327  -0.325  -0.321
 -0.315  -0.309  -0.306  -0.302  -0.284  -0.283  -0.275  -0.274
 -0.273  -0.272  -0.271  -0.269  -0.268  -0.268  -0.266  -0.266
 -0.264  -0.263  -0.263  -0.261  -0.260  -0.259  -0.257  -0.257
 -0.252  -0.249  -0.248  -0.244  -0.221  -0.220  -0.216  -0.214
 -0.213  -0.212  -0.210  -0.207  -0.204  -0.198

          Ground-State Mulliken Net Atomic Charges

     Atom                 Charge (a.u.)
  ----------------------------------------
      1 O                    -0.470709
      2 C                    -0.095197
      3 H                     0.127091
      4 H                     0.129928
      5 H                     0.130526
      6 O                    -0.457668
      7 C                     0.592601
      8 C                    -0.259557
      9 H                     0.134312
     10 H                     0.127298
     11 C                    -0.190982
     12 H                     0.111344
     13 H                     0.115297
     14 C                    -0.181898
     15 H                     0.120480
     16 H                     0.109881
     17 C                     0.026620
     18 C                     0.114272
     19 C                    -0.107058
     20 H                     0.089932
     21 C                    -0.088968
     22 H                     0.088384
     23 C                    -0.094462
     24 H                     0.091286
     25 C                    -0.090726
     26 H                     0.101284
     27 C                    -0.116830
     28 H                     0.085532
     29 C                     0.036656
     30 C                    -0.031348
     31 C                    -0.016152
     32 C                     0.041230
     33 C                     0.020737
     34 C                    -0.024120
     35 C                    -0.005380
     36 C                     0.046704
     37 C                    -0.000310
     38 C                    -0.018925
     39 C                    -0.089989
     40 C                     0.003805
     41 C                     0.019783
     42 C                     0.058936
     43 C                     0.049514
     44 C                    -0.009916
     45 C                    -0.093432
     46 C                     0.032185
     47 C                    -0.017839
     48 C                     0.065743
     49 C                     0.002123
     50 C                    -0.018945
     51 C                     0.008437
     52 C                     0.039704
     53 C                     0.009526
     54 C                    -0.000659
     55 C                     0.004382
     56 C                    -0.010864
     57 C                     0.047017
     58 C                    -0.008165
     59 C                    -0.024188
     60 C                     0.003787
     61 C                    -0.006418
     62 C                    -0.052230
     63 C                    -0.005202
     64 C                    -0.035041
     65 C                    -0.030553
     66 C                    -0.046698
     67 C                    -0.041072
     68 C                    -0.003785
     69 C                     0.013410
     70 C                    -0.003455
     71 C                     0.021176
     72 C                     0.005318
     73 C                    -0.005236
     74 C                    -0.007663
     75 C                    -0.012085
     76 C                    -0.010346
     77 C                     0.053383
     78 C                    -0.013286
     79 C                     0.046287
     80 C                     0.035454
     81 C                    -0.001407
     82 C                    -0.036651
     83 C                    -0.015407
     84 C                    -0.021814
     85 C                    -0.000282
     86 C                    -0.022204
     87 C                    -0.018857
     88 C                    -0.026070
     89 O                    -0.453283
     90 C                    -0.101739
     91 H                     0.129173
     92 H                     0.128258
     93 H                     0.124036
     94 O                    -0.454287
     95 C                     0.599468
     96 C                    -0.267532
     97 H                     0.126176
     98 H                     0.122391
     99 C                    -0.173206
    100 H                     0.124227
    101 H                     0.110339
    102 C                    -0.190884
    103 H                     0.104646
    104 H                     0.107850
    105 C                     0.006874
    106 C                     0.104783
    107 C                    -0.101348
    108 H                     0.097145
    109 C                    -0.108883
    110 H                     0.090237
    111 C                    -0.083907
    112 H                     0.089637
    113 C                    -0.083886
    114 H                     0.089297
    115 C                    -0.101064
    116 H                     0.086850
    117 C                    -0.035654
    118 C                    -0.029863
    119 C                     0.006099
    120 C                    -0.020216
    121 C                     0.004089
    122 C                     0.020101
    123 C                     0.009144
    124 C                    -0.044965
    125 C                    -0.001875
    126 C                     0.013281
    127 C                    -0.089799
    128 C                    -0.009393
    129 C                    -0.009628
    130 C                    -0.016694
    131 C                     0.013688
    132 C                     0.005517
    133 C                    -0.103719
    134 C                     0.038152
    135 C                    -0.032685
    136 C                    -0.004824
    137 C                    -0.001984
    138 C                    -0.016947
    139 C                     0.026302
    140 C                    -0.012433
    141 C                     0.031678
    142 C                    -0.004751
    143 C                    -0.006922
    144 C                    -0.021303
    145 C                     0.014062
    146 C                    -0.014040
    147 C                     0.012327
    148 C                     0.011405
    149 C                     0.005382
    150 C                    -0.012235
    151 C                     0.010014
    152 C                    -0.015517
    153 C                    -0.001238
    154 C                    -0.022587
    155 C                     0.039707
    156 C                    -0.001566
    157 C                     0.011992
    158 C                     0.007441
    159 C                    -0.011415
    160 C                     0.021939
    161 C                     0.027653
    162 C                     0.008661
    163 C                     0.024433
    164 C                    -0.006158
    165 C                     0.004651
    166 C                     0.002818
    167 C                    -0.001588
    168 C                     0.038437
    169 C                    -0.022220
    170 C                    -0.017955
    171 C                     0.011804
    172 C                    -0.027918
    173 C                    -0.005593
    174 C                     0.022331
    175 C                     0.010538
    176 C                     0.027353
  ----------------------------------------
  Sum of atomic charges =     0.000000

                    Cartesian Multipole Moments
 -----------------------------------------------------------------
    Charge (ESU x 10^10)
                 0.0000
    Dipole Moment (Debye)
         X      -0.3166      Y       1.5773      Z      -2.2122
       Tot       2.7353
    Quadrupole Moments (Debye-Ang)
        XX    -811.1986     XY       4.7158     YY    -807.6728
        XZ       5.6012     YZ       4.0494     ZZ    -799.8107

 Total job time:  878.85s(wall), 7524.98s(cpu)
        *  Thank you very much for using Q-Chem.  Have a nice day.  *
