 Q-Chem 4.4, Q-Chem, Inc., Pleasanton, CA (2016)
 Q-Chem 4.4.2 for Intel X86 Linux

User input:
--------------------------------------------------------------
$comment
SP
$end

$rem
MEM_STATIC 5000
MEM_TOTAL 20000
JOBTYPE SP
EXCHANGE B3LYP
BASIS 6-31g(d,p)
$end

$molecule
0 1
O          12.834000     -9.809000     -5.643000
C          11.404000     -9.637000     -5.724000
H          11.113000     -9.309000     -6.729000
H          10.967000     -8.904000     -5.035000
H          10.900000    -10.594000     -5.541000
O          13.384000     -7.572000     -5.674000
C          13.721000     -8.748000     -5.631000
C          15.102000     -9.272000     -5.719000
H          15.029000    -10.190000     -6.315000
H          15.439000     -9.681000     -4.759000
C          16.084000     -8.202000     -6.269000
H          15.767000     -7.852000     -7.259000
H          15.998000     -7.331000     -5.608000
C          17.561000     -8.722000     -6.498000
H          17.533000     -9.581000     -7.179000
H          18.078000     -7.918000     -7.037000
C          18.425000     -8.901000     -5.220000
C          18.548000     -7.586000     -4.575000
C          17.703000     -7.289000     -3.482000
H          16.928000     -7.999000     -3.210000
C          17.877000     -6.059000     -2.838000
H          17.229000     -5.756000     -2.021000
C          18.871000     -5.130000     -3.299000
H          19.032000     -4.137000     -2.889000
C          19.654000     -5.460000     -4.405000
H          20.349000     -4.697000     -4.742000
C          19.486000     -6.672000     -5.018000
H          20.208000     -6.906000     -5.795000
C          23.162000    -10.718000     -3.158000
C          21.627000    -10.968000     -1.305000
C          21.396000    -15.493000     -1.472000
C          21.314000    -13.023000     -7.290000
C          18.286000    -15.647000     -3.113000
C          22.079000    -10.306000     -2.415000
C          19.819000    -15.232000     -6.412000
C          23.361000    -13.998000     -1.736000
C          17.881000    -11.592000     -2.535000
C          19.949000    -12.972000     -7.147000
C          18.387000    -10.272000     -4.489000
C          17.383000    -12.240000     -3.651000
C          18.096000    -13.584000     -5.991000
C          19.411000    -16.021000     -5.308000
C          19.795000    -10.128000     -2.320000
C          20.563000    -16.552000     -3.271000
C          19.611000     -9.863000     -5.166000
C          20.004000    -10.692000     -6.244000
C          19.437000    -16.129000     -2.502000
C          23.562000    -14.615000     -5.157000
C          22.820000    -15.822000     -3.356000
C          23.652000    -14.748000     -2.876000
C          23.403000    -12.602000     -1.693000
C          21.465000    -10.824000     -6.312000
C          18.561000    -10.435000     -2.969000
C          22.280000    -12.159000     -0.940000
C          19.200000    -14.031000     -6.672000
C          20.248000    -10.896000     -1.273000
C          17.299000    -13.623000     -3.682000
C          23.294000    -12.410000     -6.201000
C          22.200000    -14.397000     -0.995000
C          17.705000    -11.498000     -4.830000
C          24.227000    -12.576000     -3.959000
C          17.686000    -14.307000     -4.834000
C          18.271000    -12.326000     -1.448000
C          21.666000    -16.130000     -5.437000
C          21.225000    -15.317000     -6.511000
C          18.244000    -13.761000     -1.471000
C          22.094000    -11.938000     -6.833000
C          19.270000    -11.800000     -6.691000
C          23.201000    -13.842000     -6.277000
C          20.923000     -9.597000     -4.418000
C          20.137000    -13.217000     -0.506000
C          18.090000    -12.178000     -6.012000
C          17.688000    -14.438000     -2.609000
C          23.808000    -11.810000     -5.052000
C          20.019000    -15.406000     -1.424000
C          23.885000    -11.875000     -2.799000
C          21.710000    -16.216000     -2.586000
C          19.503000    -12.036000     -0.847000
C          19.375000    -14.307000     -0.886000
C          20.915000     -9.664000     -3.040000
C          21.999000    -10.141000     -5.180000
C          22.866000    -15.769000     -4.729000
C          21.571000    -13.223000     -0.638000
C          18.319000    -15.495000     -4.526000
C          22.010000    -14.213000     -6.958000
C          20.518000    -16.537000     -4.676000
C          23.084000    -10.666000     -4.556000
C          24.050000    -13.995000     -4.014000
O          28.780000    -29.767000     -7.424000
C          29.612000    -30.466000     -8.401000
H          30.365000    -29.787000     -8.818000
H          29.024000    -30.906000     -9.216000
H          30.103000    -31.296000     -7.877000
O          27.256000    -31.475000     -7.112000
C          27.708000    -30.412000     -6.843000
C          27.121000    -29.565000     -5.684000
H          27.931000    -28.956000     -5.265000
H          26.690000    -30.184000     -4.887000
C          25.970000    -28.650000     -6.256000
H          26.485000    -27.945000     -6.920000
H          25.397000    -29.338000     -6.890000
C          25.236000    -28.007000     -5.066000
H          24.784000    -28.780000     -4.432000
H          26.027000    -27.518000     -4.485000
C          24.211000    -26.988000     -5.619000
C          23.106000    -27.564000     -6.355000
C          22.229000    -28.303000     -5.588000
H          22.451000    -28.423000     -4.532000
C          21.184000    -29.036000     -6.203000
H          20.442000    -29.594000     -5.639000
C          21.094000    -28.979000     -7.630000
H          20.204000    -29.400000     -8.088000
C          22.020000    -28.329000     -8.358000
H          21.961000    -28.341000     -9.442000
C          22.957000    -27.551000     -7.735000
H          23.671000    -27.037000     -8.373000
C          23.835000    -22.103000     -8.051000
C          21.744000    -22.334000     -6.941000
C          22.356000    -19.379000     -3.684000
C          27.611000    -22.782000     -4.643000
C          23.162000    -21.776000     -1.211000
C          22.837000    -22.881000     -7.537000
C          26.724000    -21.917000     -2.162000
C          22.957000    -19.244000     -5.987000
C          22.032000    -24.743000     -3.740000
C          27.157000    -23.740000     -3.733000
C          23.753000    -25.846000     -4.858000
C          23.107000    -24.919000     -2.823000
C          25.656000    -24.113000     -2.137000
C          25.599000    -21.403000     -1.572000
C          22.117000    -24.462000     -6.111000
C          23.978000    -19.681000     -2.161000
C          24.754000    -25.594000     -5.943000
C          26.175000    -25.078000     -5.501000
C          22.905000    -20.512000     -1.777000
C          26.409000    -19.593000     -5.403000
C          24.600000    -18.690000     -4.285000
C          24.244000    -18.834000     -5.649000
C          22.694000    -20.124000     -7.058000
C          26.494000    -24.053000     -6.391000
C          22.388000    -25.248000     -4.982000
C          21.662000    -20.963000     -6.613000
C          26.700000    -23.267000     -2.487000
C          21.272000    -23.318000     -6.010000
C          23.260000    -23.998000     -1.803000
C          26.990000    -21.676000     -6.524000
C          21.980000    -19.604000     -5.020000
C          24.174000    -25.511000     -3.468000
C          25.164000    -20.337000     -7.371000
C          24.569000    -23.595000     -1.439000
C          21.186000    -23.627000     -3.661000
C          26.263000    -19.914000     -3.004000
C          27.108000    -20.974000     -3.110000
C          21.349000    -22.711000     -2.653000
C          27.263000    -22.957000     -5.962000
C          26.454000    -24.901000     -4.149000
C          27.258000    -20.730000     -5.507000
C          24.388000    -24.695000     -7.078000
C          20.638000    -21.536000     -4.397000
C          25.456000    -25.017000     -3.172000
C          22.373000    -22.871000     -1.675000
C          25.985000    -21.465000     -7.424000
C          21.878000    -20.299000     -2.709000
C          23.853000    -20.718000     -7.690000
C          23.656000    -18.964000     -3.341000
C          20.720000    -22.880000     -4.743000
C          21.099000    -21.417000     -3.084000
C          23.088000    -24.167000     -7.091000
C          25.465000    -23.811000     -7.335000
C          25.904000    -19.232000     -4.167000
C          21.174000    -20.653000     -5.350000
C          24.526000    -22.232000     -1.151000
C          27.600000    -21.410000     -4.312000
C          25.339000    -20.128000     -2.004000
C          25.159000    -22.557000     -7.800000
C          25.373000    -19.410000     -6.325000
$end

--------------------------------------------------------------

             Standard Nuclear Orientation (Angstroms)
    I     Atom           X                Y                Z
 ----------------------------------------------------------------
    1      O      10.7991500432     5.8127539358     0.2779809721
    2      C      11.4928001049     7.0310806569     0.6179436059
    3      H      11.8282497118     7.5478716459    -0.2890793458
    4      H      12.3872770243     6.9181231700     1.2425479983
    5      H      10.8148648315     7.7146134056     1.1438150223
    6      O      12.6520487402     4.6153590865    -0.3858277306
    7      C      11.4430470527     4.6900304607    -0.2093819723
    8      C      10.4302637214     3.6915556631    -0.6177923083
    9      H       9.5653099571     4.2744809797    -0.9573833283
   10      H       9.9992301584     3.1777591338     0.2497750920
   11      C      11.0033149915     2.6904387908    -1.6575524969
   12      H      11.3700509128     3.2171472935    -2.5470309493
   13      H      11.8900883910     2.2372716552    -1.1979543188
   14      C       9.9470511739     1.6590961422    -2.2276481806
   15      H       9.1129558637     2.2149409747    -2.6723363137
   16      H      10.4515764965     1.1454549814    -3.0558105781
   17      C       9.5531563127     0.4942995830    -1.2790087264
   18      C      10.7691509958    -0.2797877370    -0.9917375098
   19      C      11.4469221667    -0.0443046950     0.2256601149
   20      H      11.1062303426     0.7616571373     0.8683603607
   21      C      12.5651324601    -0.8346679349     0.5134859107
   22      H      13.1526665787    -0.6708319490     1.4119086560
   23      C      13.0104215523    -1.8330251626    -0.4185003930
   24      H      13.8969556504    -2.4484362844    -0.2944179846
   25      C      12.3246770486    -1.9989822188    -1.6215954562
   26      H      12.7395393592    -2.7286472574    -2.3102471786
   27      C      11.2231818691    -1.2311467687    -1.8863105693
   28      H      10.6743613986    -1.4966587099    -2.7852368735
   29      C       6.2427640920    -3.7958163697    -0.4860960846
   30      C       6.7355317605    -3.0614937294     1.7656330920
   31      C       2.6361963217    -1.3219515163     2.6178753400
   32      C       4.4984564150     0.0885155987    -3.2557366545
   33      C       3.5450845471     2.0401853681     2.1092942115
   34      C       7.0897910355    -3.2616690795     0.4583159173
   35      C       3.0941405167     1.7869351871    -1.5153752669
   36      C       3.2512130972    -3.4227939564     1.4456290316
   37      C       7.4831825058     0.8560392910     1.9351777683
   38      C       5.0731087799     1.2071669127    -2.7037684514
   39      C       8.3590879560     0.7053102512    -0.3068352555
   40      C       6.9881684804     1.9124780276     1.1920342354
   41      C       5.2987496704     2.5934194925    -0.9227914798
   42      C       2.6056204707     1.9924790843    -0.2012592633
   43      C       8.1257200327    -1.3669197832     1.2291214811
   44      C       1.8363672236     0.4120439382     1.4324200782
   45      C       8.2210712174    -0.2438584454    -1.4040208210
   46      C       7.2247989077     0.0821644316    -2.3552960538
   47      C       2.7118133983     0.9704389062     2.4121930390
   48      C       2.3430896577    -2.1349203524    -1.6593708716
   49      C       1.6489785633    -1.7592551308     0.4919309273
   50      C       2.3616510914    -3.0109189445     0.4527446413
   51      C       4.5263134236    -3.9308441129     1.1840316385
   52      C       6.5448613715    -1.1212576585    -2.8513093802
   53      C       8.2596986157     0.0465989077     1.0800555567
   54      C       5.4178428007    -3.3756882776     2.1439089058
   55      C       4.4162552003     2.0295571555    -1.8091597865
   56      C       7.3263226344    -1.8965824984     2.2148512654
   57      C       5.7418777751     2.4484149779     1.4752957108
   58      C       4.3982102295    -2.2364003519    -2.9972670727
   59      C       3.3795287315    -2.5553199482     2.5801892737
   60      C       7.4601198044     1.8247793052    -0.1547619191
   61      C       4.0642798345    -3.8209514077    -1.1800446200
   62      C       4.8759392709     2.7596195841     0.4274258715
   63      C       6.7420653610     0.3553620177     2.9707899764
   64      C       1.6417008486     0.1129858848    -1.0086694907
   65      C       2.4759901479     0.6274726359    -2.0324813621
   66      C       5.4268508051     0.8557115101     3.2542402494
   67      C       5.2391885760    -1.1129995457    -3.3021179368
   68      C       6.4462098743     1.2474631873    -2.3093947773
   69      C       3.1066690022    -1.6600442406    -2.7427402745
   70      C       8.0273611384    -1.7483867880    -1.1793546870
   71      C       5.2863553624    -1.3252404892     3.4394952289
   72      C       6.5963222724     2.1474810012    -1.2306180615
   73      C       4.9253475139     1.9802078647     2.5149761577
   74      C       4.8454289240    -3.3032661061    -2.2186850912
   75      C       3.2412961463    -0.1695765358     3.0781883931
   76      C       4.9294828385    -4.1798201795    -0.1424503030
   77      C       1.7648328104    -0.9484940692     1.6362561845
   78      C       6.5894736486    -1.0331682282     3.0795306107
   79      C       4.5401163751    -0.1661520132     3.5525672352
   80      C       8.0744928235    -2.2276681973     0.1135122570
   81      C       7.0597644854    -2.2263522921    -2.1119112236
   82      C       1.5749352724    -1.3103211704    -0.8053854915
   83      C       4.7279422746    -2.5226894423     2.8666891290
   84      C       3.5642063509     2.4828705465     0.7585809963
   85      C       3.1628792232    -0.2512621819    -2.9217836269
   86      C       1.7592540738     0.9643818447     0.1419738766
   87      C       6.2128079748    -3.2294145014    -1.7673000319
   88      C       2.8181358888    -3.1834724473    -0.8822849159
   89      O     -13.7824589822    -0.8950274220    -2.2752146682
   90      C     -14.8172057231    -1.0307601435    -3.2980684263
   91      H     -14.5079262319    -1.7539901261    -4.0617591939
   92      H     -15.0631613609    -0.0748673435    -3.7769669323
   93      H     -15.7283699050    -1.3804132531    -2.7959931964
   94      O     -14.7571688313     0.8738131781    -1.1534626271
   95      C     -13.9270385311     0.0342745084    -1.2661236533
   96      C     -12.8345132870    -0.1586430264    -0.1824122454
   97      H     -12.5471254757    -1.2168953156    -0.1751777193
   98      H     -13.1811121979     0.1246332734     0.8194633621
   99      C     -11.5988390485     0.7553961489    -0.5385745150
  100      H     -11.1944827047     0.3218997327    -1.4614628096
  101      H     -12.0653200843     1.7124379299    -0.8033300111
  102      C     -10.6364681105     0.7455726768     0.6622796298
  103      H     -11.1296982764     1.1574935845     1.5515682046
  104      H     -10.4401286314    -0.3167107611     0.8503426686
  105      C      -9.3510903642     1.5089974960     0.2625527295
  106      C      -9.5207511417     2.9301197136     0.0477880596
  107      C      -9.8115454623     3.6518002029     1.1871540827
  108      H      -9.9250983263     3.1083688867     2.1202179346
  109      C     -10.1394345327     5.0273281533     1.0979878607
  110      H     -10.3299673887     5.6472875823     1.9694071267
  111      C     -10.1624656535     5.6132354759    -0.2073320912
  112      H     -10.2491587128     6.6941349216    -0.2643031513
  113      C      -9.9693142466     4.8635760539    -1.3076335431
  114      H     -10.0413636091     5.3185484812    -2.2907357655
  115      C      -9.5584263097     3.5644083600    -1.1863223466
  116      H      -9.4035696513     3.0104659865    -2.1083870202
  117      C      -4.8896960933     1.1385903161    -2.8803734039
  118      C      -4.2260731900     2.6245930355    -1.1456853742
  119      C      -1.4816478324    -0.0735011402     1.0685944807
  120      C      -6.6832186286    -3.1828650392    -0.7727725103
  121      C      -3.8076666172    -0.9045194827     3.6003960383
  122      C      -5.1901133004     2.0716013090    -1.9292036037
  123      C      -5.3589454426    -3.6080163451     1.6263735661
  124      C      -1.7615817685     0.2085458945    -1.2820057536
  125      C      -6.3111604982     1.9798952477     2.2261689643
  126      C      -7.3251267647    -2.8105912904     0.4110121833
  127      C      -8.0658641312     1.2542752495     0.8760338678
  128      C      -6.8098909579     0.7635881175     2.7733023060
  129      C      -6.9784359673    -1.9709505144     2.4393501380
  130      C      -4.4136949457    -3.0141902126     2.4212276550
  131      C      -6.2663546103     2.6884630124    -0.0550042328
  132      C      -2.2570547546    -1.9482152662     2.0307836776
  133      C      -8.2956567182     0.7008800163    -0.4964380200
  134      C      -8.3235343540    -0.8672818469    -0.6411867961
  135      C      -2.5879654098    -0.8846943503     2.8960971465
  136      C      -3.3451187706    -2.8973267502    -1.7564809142
  137      C      -1.7415923282    -2.0298381316    -0.3373331259
  138      C      -1.8445125834    -1.1700438483    -1.4589967168
  139      C      -2.5560793781     1.1195822005    -2.0096020685
  140      C      -7.5671931256    -1.1513012818    -1.7777460364
  141      C      -7.0071708702     2.2928427546     1.0677396742
  142      C      -2.9051987145     2.1275373072    -1.0990460890
  143      C      -6.6201002392    -3.0266640455     1.6115721205
  144      C      -4.8835376145     3.0132758256     0.0685910438
  145      C      -5.9398616154    -0.0462865045     3.4798446188
  146      C      -5.5725578076    -2.3097812329    -2.5479331249
  147      C      -1.6495622757     0.8198131944    -0.0041082924
  148      C      -7.8093652659     0.2659808461     1.9618738673
  149      C      -3.7114436497    -0.8452447784    -3.0337242990
  150      C      -6.0355775754    -1.4513262129     3.3214531014
  151      C      -4.9554834532     2.3228294195     2.3354800037
  152      C      -3.4015823325    -3.5500721502     0.5781054108
  153      C      -4.7073007292    -3.9004580415     0.4325368848
  154      C      -4.0947731965     1.5103080408     3.0287879174
  155      C      -6.8143030980    -2.3365083906    -1.8488706866
  156      C      -8.1619540456    -1.6664053690     0.4868058458
  157      C      -4.7232233261    -3.2267994906    -1.8855605307
  158      C      -7.4151135076     1.1445137419    -1.6181397503
  159      C      -2.8758738546     2.3886860840     1.3946464280
  160      C      -7.8161487262    -1.1201871581     1.7302097815
  161      C      -4.5547546332     0.3106738183     3.6451926628
  162      C      -5.0667295698    -1.1720905835    -3.1085968211
  163      C      -2.0744252305     0.2832906037     2.3123081164
  164      C      -3.5912191467     0.5377621260    -2.8375586255
  165      C      -1.5645024791    -1.4668810218     0.8911075434
  166      C      -4.1732265047     2.8835664607     1.3257587366
  167      C      -2.8396734862     1.4644702593     2.4411480490
  168      C      -6.4370593454     2.1084266484    -1.3296350460
  169      C      -7.0270682118     0.0133838480    -2.3780081675
  170      C      -2.7260044669    -3.0313798069    -0.5269406518
  171      C      -2.3374865904     1.9853784438     0.1606788023
  172      C      -4.7399171490    -1.9649651497     3.3204033006
  173      C      -5.3880629304    -3.7431481023    -0.7459283919
  174      C      -3.1724132235    -3.0447543718     1.8397343033
  175      C      -5.7902835405     0.0418780548    -2.9712440033
  176      C      -2.8550762204    -1.7154042845    -2.3219776728
 ----------------------------------------------------------------

    9   -5804.2726423412      8.44E-06 Convergence criterion met
 Total energy in the final basis set = -5804.2726423412

                    Orbital Energies (a.u.)
 --------------------------------------------------------------

 Alpha MOs
 -- Occupied --
-19.191 -19.188 -19.138 -19.138 -10.318 -10.315 -10.249 -10.245
-10.239 -10.238 -10.235 -10.233 -10.231 -10.228 -10.228 -10.228
-10.227 -10.225 -10.224 -10.224 -10.222 -10.221 -10.221 -10.220
-10.220 -10.220 -10.220 -10.220 -10.219 -10.219 -10.219 -10.219
-10.218 -10.218 -10.218 -10.218 -10.218 -10.217 -10.217 -10.217
-10.217 -10.217 -10.217 -10.217 -10.217 -10.216 -10.216 -10.216
-10.216 -10.216 -10.216 -10.216 -10.216 -10.216 -10.216 -10.215
-10.215 -10.215 -10.215 -10.215 -10.215 -10.215 -10.215 -10.215
-10.215 -10.214 -10.214 -10.214 -10.214 -10.214 -10.214 -10.214
-10.214 -10.214 -10.214 -10.214 -10.213 -10.213 -10.213 -10.213
-10.213 -10.213 -10.213 -10.213 -10.212 -10.212 -10.212 -10.212
-10.212 -10.212 -10.212 -10.211 -10.211 -10.211 -10.211 -10.211
-10.211 -10.211 -10.211 -10.211 -10.210 -10.210 -10.210 -10.210
-10.209 -10.209 -10.209 -10.209 -10.209 -10.209 -10.208 -10.208
-10.208 -10.208 -10.208 -10.207 -10.207 -10.207 -10.207 -10.207
-10.207 -10.206 -10.206 -10.206 -10.206 -10.206 -10.205 -10.205
-10.205 -10.205 -10.205 -10.204 -10.203 -10.202 -10.202 -10.200
-10.200 -10.198 -10.198 -10.198 -10.197 -10.197 -10.195 -10.194
-10.193 -10.191 -10.190 -10.187  -1.091  -1.084  -1.021  -1.007
 -0.984  -0.983  -0.968  -0.966  -0.966  -0.963  -0.960  -0.960
 -0.937  -0.936  -0.930  -0.928  -0.926  -0.923  -0.922  -0.922
 -0.921  -0.919  -0.901  -0.897  -0.890  -0.888  -0.884  -0.880
 -0.879  -0.874  -0.858  -0.857  -0.842  -0.841  -0.840  -0.839
 -0.838  -0.837  -0.823  -0.820  -0.803  -0.803  -0.799  -0.798
 -0.796  -0.794  -0.794  -0.794  -0.791  -0.790  -0.785  -0.784
 -0.771  -0.770  -0.770  -0.769  -0.769  -0.768  -0.767  -0.766
 -0.754  -0.749  -0.742  -0.741  -0.735  -0.734  -0.717  -0.715
 -0.715  -0.714  -0.711  -0.711  -0.711  -0.710  -0.708  -0.708
 -0.707  -0.707  -0.706  -0.705  -0.703  -0.699  -0.672  -0.672
 -0.661  -0.660  -0.658  -0.658  -0.649  -0.648  -0.631  -0.631
 -0.629  -0.628  -0.625  -0.624  -0.621  -0.619  -0.618  -0.616
 -0.616  -0.616  -0.613  -0.612  -0.611  -0.611  -0.609  -0.609
 -0.607  -0.606  -0.603  -0.602  -0.567  -0.566  -0.562  -0.562
 -0.560  -0.560  -0.559  -0.557  -0.556  -0.555  -0.554  -0.553
 -0.538  -0.537  -0.536  -0.532  -0.527  -0.526  -0.525  -0.523
 -0.522  -0.521  -0.518  -0.518  -0.517  -0.515  -0.513  -0.513
 -0.506  -0.505  -0.502  -0.497  -0.491  -0.489  -0.488  -0.486
 -0.485  -0.484  -0.482  -0.481  -0.479  -0.478  -0.475  -0.474
 -0.472  -0.472  -0.470  -0.469  -0.469  -0.467  -0.466  -0.466
 -0.466  -0.464  -0.463  -0.463  -0.462  -0.462  -0.460  -0.459
 -0.456  -0.455  -0.455  -0.452  -0.450  -0.443  -0.442  -0.441
 -0.441  -0.440  -0.439  -0.439  -0.438  -0.436  -0.433  -0.433
 -0.430  -0.429  -0.429  -0.428  -0.426  -0.425  -0.425  -0.424
 -0.423  -0.423  -0.422  -0.421  -0.421  -0.420  -0.420  -0.419
 -0.418  -0.417  -0.416  -0.416  -0.415  -0.415  -0.414  -0.414
 -0.412  -0.412  -0.411  -0.410  -0.403  -0.400  -0.399  -0.397
 -0.393  -0.392  -0.391  -0.389  -0.387  -0.386  -0.385  -0.382
 -0.381  -0.379  -0.377  -0.371  -0.369  -0.368  -0.366  -0.365
 -0.363  -0.362  -0.361  -0.361  -0.359  -0.358  -0.358  -0.357
 -0.356  -0.354  -0.354  -0.353  -0.352  -0.351  -0.351  -0.351
 -0.349  -0.349  -0.348  -0.347  -0.347  -0.345  -0.344  -0.342
 -0.342  -0.341  -0.340  -0.340  -0.337  -0.337  -0.337  -0.335
 -0.333  -0.331  -0.330  -0.329  -0.328  -0.328  -0.326  -0.326
 -0.308  -0.303  -0.301  -0.297  -0.292  -0.285  -0.272  -0.271
 -0.271  -0.269  -0.268  -0.267  -0.266  -0.265  -0.264  -0.263
 -0.261  -0.261  -0.261  -0.260  -0.258  -0.257  -0.256  -0.254
 -0.248  -0.245  -0.243  -0.241  -0.227  -0.216  -0.214  -0.209
 -0.209  -0.208  -0.207  -0.204  -0.201  -0.200

          Ground-State Mulliken Net Atomic Charges

     Atom                 Charge (a.u.)
  ----------------------------------------
      1 O                    -0.481533
      2 C                    -0.084403
      3 H                     0.122741
      4 H                     0.129068
      5 H                     0.124365
      6 O                    -0.474073
      7 C                     0.614508
      8 C                    -0.272094
      9 H                     0.138510
     10 H                     0.138350
     11 C                    -0.184753
     12 H                     0.112197
     13 H                     0.135254
     14 C                    -0.196289
     15 H                     0.105586
     16 H                     0.110876
     17 C                     0.011334
     18 C                     0.085164
     19 C                    -0.090950
     20 H                     0.096233
     21 C                    -0.105085
     22 H                     0.092924
     23 C                    -0.081731
     24 H                     0.090055
     25 C                    -0.084278
     26 H                     0.091004
     27 C                    -0.096904
     28 H                     0.089417
     29 C                     0.014567
     30 C                    -0.014560
     31 C                     0.013175
     32 C                    -0.014576
     33 C                    -0.029807
     34 C                    -0.001205
     35 C                    -0.014208
     36 C                    -0.014732
     37 C                     0.022288
     38 C                     0.022891
     39 C                    -0.085600
     40 C                     0.022891
     41 C                    -0.018837
     42 C                    -0.024179
     43 C                     0.015255
     44 C                     0.008279
     45 C                    -0.079403
     46 C                     0.053224
     47 C                    -0.017016
     48 C                     0.017682
     49 C                     0.021111
     50 C                    -0.021477
     51 C                     0.008283
     52 C                    -0.014187
     53 C                     0.010306
     54 C                    -0.002163
     55 C                     0.039603
     56 C                     0.015804
     57 C                    -0.000469
     58 C                    -0.006916
     59 C                    -0.040798
     60 C                     0.035631
     61 C                     0.010584
     62 C                     0.004630
     63 C                    -0.012790
     64 C                    -0.032561
     65 C                     0.009493
     66 C                    -0.009554
     67 C                     0.004008
     68 C                    -0.029065
     69 C                    -0.014869
     70 C                     0.026151
     71 C                     0.004596
     72 C                    -0.048551
     73 C                    -0.020278
     74 C                    -0.004393
     75 C                     0.022750
     76 C                    -0.028436
     77 C                     0.010025
     78 C                    -0.015757
     79 C                    -0.002130
     80 C                    -0.024893
     81 C                     0.015788
     82 C                    -0.003113
     83 C                     0.044632
     84 C                     0.018768
     85 C                    -0.011538
     86 C                     0.027159
     87 C                     0.000795
     88 C                     0.001552
     89 O                    -0.480289
     90 C                    -0.089812
     91 H                     0.128986
     92 H                     0.132579
     93 H                     0.127996
     94 O                    -0.442409
     95 C                     0.577574
     96 C                    -0.242715
     97 H                     0.116154
     98 H                     0.122381
     99 C                    -0.195610
    100 H                     0.116436
    101 H                     0.131176
    102 C                    -0.176590
    103 H                     0.109119
    104 H                     0.112973
    105 C                     0.021650
    106 C                     0.101252
    107 C                    -0.106860
    108 H                     0.087936
    109 C                    -0.099805
    110 H                     0.093201
    111 C                    -0.083735
    112 H                     0.086927
    113 C                    -0.077566
    114 H                     0.088884
    115 C                    -0.105721
    116 H                     0.087396
    117 C                    -0.044134
    118 C                    -0.010741
    119 C                    -0.018642
    120 C                    -0.002883
    121 C                    -0.016970
    122 C                     0.037189
    123 C                    -0.014878
    124 C                     0.013576
    125 C                     0.003423
    126 C                    -0.025061
    127 C                    -0.110382
    128 C                     0.012640
    129 C                     0.008992
    130 C                     0.020595
    131 C                     0.017710
    132 C                    -0.020403
    133 C                    -0.104802
    134 C                     0.019980
    135 C                     0.006238
    136 C                     0.011015
    137 C                    -0.013667
    138 C                     0.005500
    139 C                    -0.036451
    140 C                     0.017808
    141 C                     0.032826
    142 C                    -0.008713
    143 C                     0.011707
    144 C                    -0.035664
    145 C                    -0.015180
    146 C                     0.009277
    147 C                     0.000182
    148 C                     0.044846
    149 C                     0.007585
    150 C                    -0.023164
    151 C                     0.024942
    152 C                     0.017623
    153 C                     0.011970
    154 C                     0.004636
    155 C                    -0.010684
    156 C                    -0.008286
    157 C                    -0.034090
    158 C                    -0.012693
    159 C                    -0.028130
    160 C                     0.011568
    161 C                    -0.018082
    162 C                     0.011785
    163 C                    -0.005727
    164 C                     0.000534
    165 C                     0.036740
    166 C                    -0.016111
    167 C                     0.007528
    168 C                     0.042386
    169 C                     0.008813
    170 C                     0.000113
    171 C                     0.059507
    172 C                     0.010510
    173 C                     0.006345
    174 C                    -0.021352
    175 C                    -0.002530
    176 C                    -0.017530
  ----------------------------------------
  Sum of atomic charges =     0.000000

                    Cartesian Multipole Moments
 -----------------------------------------------------------------
    Charge (ESU x 10^10)
                 0.0000
    Dipole Moment (Debye)
         X      -0.4178      Y       0.6120      Z      -1.1912
       Tot       1.4029
    Quadrupole Moments (Debye-Ang)
        XX    -786.5339     XY       8.9613     YY    -788.6318
        XZ      12.4303     YZ       7.9309     ZZ    -797.3617

 Total job time:  854.24s(wall), 7193.47s(cpu)
        *  Thank you very much for using Q-Chem.  Have a nice day.  *
