 Q-Chem 4.4, Q-Chem, Inc., Pleasanton, CA (2016)
 Q-Chem 4.4.2 for Intel X86 Linux

User input:
--------------------------------------------------------------
$comment
SP
$end

$rem
MEM_STATIC 5000
MEM_TOTAL 20000
JOBTYPE SP
EXCHANGE B3LYP
BASIS 6-31g(d,p)
$end

$molecule
0 1
O          17.904000    -10.521000     -9.488000
C          19.143000    -10.161000    -10.043000
H          19.271000    -10.419000    -11.102000
H          19.902000    -10.673000     -9.440000
H          19.293000     -9.094000     -9.834000
O          18.038000    -12.728000    -10.141000
C          17.447000    -11.754000     -9.643000
C          16.100000    -11.859000     -8.990000
H          15.426000    -11.191000     -9.540000
H          16.200000    -11.471000     -7.969000
C          15.602000    -13.305000     -8.837000
H          16.280000    -13.906000     -8.217000
H          14.773000    -13.234000     -8.122000
C          15.158000    -13.978000    -10.112000
H          14.348000    -13.370000    -10.534000
H          15.992000    -13.804000    -10.804000
C          14.750000    -15.439000     -9.896000
C          13.470000    -15.624000     -9.160000
C          12.300000    -15.363000     -9.866000
H          12.268000    -15.057000    -10.908000
C          11.045000    -15.455000     -9.256000
H          10.119000    -15.334000     -9.810000
C          10.966000    -15.968000     -7.968000
H          10.011000    -16.105000     -7.469000
C          12.164000    -16.197000     -7.244000
H          12.052000    -16.414000     -6.185000
C          13.411000    -15.949000     -7.799000
H          14.289000    -16.069000     -7.171000
C          16.726000    -20.184000     -8.000000
C          15.111000    -20.949000     -9.569000
C          18.048000    -22.340000    -12.702000
C          20.063000    -16.939000     -9.906000
C          17.835000    -19.442000    -14.648000
C          15.457000    -20.063000     -8.531000
C          20.277000    -17.680000    -12.595000
C          18.097000    -22.670000    -10.274000
C          14.721000    -18.220000    -12.466000
C          19.386000    -16.165000    -10.908000
C          15.166000    -16.535000    -10.888000
C          15.577000    -17.304000    -13.030000
C          18.247000    -16.366000    -12.990000
C          19.927000    -18.546000    -13.694000
C          14.362000    -18.855000    -10.152000
C          19.490000    -20.908000    -13.481000
C          15.835000    -16.425000     -9.549000
C          17.295000    -16.120000     -9.583000
C          18.297000    -20.753000    -14.233000
C          20.711000    -20.331000     -9.765000
C          20.081000    -21.789000    -11.366000
C          19.388000    -22.159000    -10.197000
C          17.197000    -22.196000     -9.302000
C          17.943000    -16.933000     -8.619000
C          14.474000    -17.829000    -11.147000
C          15.923000    -22.019000     -9.957000
C          19.499000    -16.518000    -12.266000
C          14.421000    -20.202000    -10.522000
C          16.513000    -17.728000    -14.009000
C          19.772000    -18.600000     -8.369000
C          17.378000    -22.772000    -11.510000
C          15.948000    -16.320000    -12.116000
C          18.859000    -20.875000     -8.209000
C          17.858000    -17.281000    -13.979000
C          14.782000    -19.576000    -12.867000
C          21.027000    -19.719000    -12.064000
C          21.059000    -18.381000    -11.650000
C          15.671000    -20.011000    -13.839000
C          19.333000    -17.305000     -8.764000
C          17.988000    -15.853000    -10.785000
C          20.662000    -19.047000     -9.393000
C          15.809000    -17.638000     -8.619000
C          15.401000    -21.623000    -12.230000
C          17.341000    -15.919000    -12.094000
C          16.518000    -19.066000    -14.431000
C          18.784000    -19.511000     -7.822000
C          17.394000    -21.633000    -13.686000
C          17.547000    -21.305000     -8.301000
C          19.384000    -21.935000    -12.617000
C          14.612000    -20.517000    -11.849000
C          16.059000    -21.272000    -13.429000
C          15.044000    -18.779000     -8.924000
C          17.088000    -17.819000     -8.032000
C          20.897000    -20.689000    -11.116000
C          16.033000    -22.468000    -11.240000
C          18.684000    -18.373000    -14.353000
C          20.832000    -18.014000    -10.267000
C          20.362000    -19.810000    -13.318000
C          17.509000    -19.080000     -7.673000
C          19.808000    -21.290000     -9.160000
O          28.780000    -29.767000     -7.424000
C          29.612000    -30.466000     -8.401000
H          30.365000    -29.787000     -8.818000
H          29.024000    -30.906000     -9.216000
H          30.103000    -31.296000     -7.877000
O          27.256000    -31.475000     -7.112000
C          27.708000    -30.412000     -6.843000
C          27.121000    -29.565000     -5.684000
H          27.931000    -28.956000     -5.265000
H          26.690000    -30.184000     -4.887000
C          25.970000    -28.650000     -6.256000
H          26.485000    -27.945000     -6.920000
H          25.397000    -29.338000     -6.890000
C          25.236000    -28.007000     -5.066000
H          24.784000    -28.780000     -4.432000
H          26.027000    -27.518000     -4.485000
C          24.211000    -26.988000     -5.619000
C          23.106000    -27.564000     -6.355000
C          22.229000    -28.303000     -5.588000
H          22.451000    -28.423000     -4.532000
C          21.184000    -29.036000     -6.203000
H          20.442000    -29.594000     -5.639000
C          21.094000    -28.979000     -7.630000
H          20.204000    -29.400000     -8.088000
C          22.020000    -28.329000     -8.358000
H          21.961000    -28.341000     -9.442000
C          22.957000    -27.551000     -7.735000
H          23.671000    -27.037000     -8.373000
C          23.835000    -22.103000     -8.051000
C          21.744000    -22.334000     -6.941000
C          22.356000    -19.379000     -3.684000
C          27.611000    -22.782000     -4.643000
C          23.162000    -21.776000     -1.211000
C          22.837000    -22.881000     -7.537000
C          26.724000    -21.917000     -2.162000
C          22.957000    -19.244000     -5.987000
C          22.032000    -24.743000     -3.740000
C          27.157000    -23.740000     -3.733000
C          23.753000    -25.846000     -4.858000
C          23.107000    -24.919000     -2.823000
C          25.656000    -24.113000     -2.137000
C          25.599000    -21.403000     -1.572000
C          22.117000    -24.462000     -6.111000
C          23.978000    -19.681000     -2.161000
C          24.754000    -25.594000     -5.943000
C          26.175000    -25.078000     -5.501000
C          22.905000    -20.512000     -1.777000
C          26.409000    -19.593000     -5.403000
C          24.600000    -18.690000     -4.285000
C          24.244000    -18.834000     -5.649000
C          22.694000    -20.124000     -7.058000
C          26.494000    -24.053000     -6.391000
C          22.388000    -25.248000     -4.982000
C          21.662000    -20.963000     -6.613000
C          26.700000    -23.267000     -2.487000
C          21.272000    -23.318000     -6.010000
C          23.260000    -23.998000     -1.803000
C          26.990000    -21.676000     -6.524000
C          21.980000    -19.604000     -5.020000
C          24.174000    -25.511000     -3.468000
C          25.164000    -20.337000     -7.371000
C          24.569000    -23.595000     -1.439000
C          21.186000    -23.627000     -3.661000
C          26.263000    -19.914000     -3.004000
C          27.108000    -20.974000     -3.110000
C          21.349000    -22.711000     -2.653000
C          27.263000    -22.957000     -5.962000
C          26.454000    -24.901000     -4.149000
C          27.258000    -20.730000     -5.507000
C          24.388000    -24.695000     -7.078000
C          20.638000    -21.536000     -4.397000
C          25.456000    -25.017000     -3.172000
C          22.373000    -22.871000     -1.675000
C          25.985000    -21.465000     -7.424000
C          21.878000    -20.299000     -2.709000
C          23.853000    -20.718000     -7.690000
C          23.656000    -18.964000     -3.341000
C          20.720000    -22.880000     -4.743000
C          21.099000    -21.417000     -3.084000
C          23.088000    -24.167000     -7.091000
C          25.465000    -23.811000     -7.335000
C          25.904000    -19.232000     -4.167000
C          21.174000    -20.653000     -5.350000
C          24.526000    -22.232000     -1.151000
C          27.600000    -21.410000     -4.312000
C          25.339000    -20.128000     -2.004000
C          25.159000    -22.557000     -7.800000
C          25.373000    -19.410000     -6.325000
$end

--------------------------------------------------------------

             Standard Nuclear Orientation (Angstroms)
    I     Atom           X                Y                Z
 ----------------------------------------------------------------
    1      O      -8.8932695573     5.7041099007    -2.4706159150
    2      C      -8.5140083341     5.9107827490    -3.8071013277
    3      H      -8.7165660081     5.0705720531    -4.4834484096
    4      H      -7.4382195661     6.1205694689    -3.7846946611
    5      H      -8.9756192380     6.8519946876    -4.1322250886
    6      O      -7.7329309931     3.7243501508    -2.2484003683
    7      C      -8.5139797349     4.6022571577    -1.8419484644
    8      C      -9.0799652949     4.6160234193    -0.4522312860
    9      H     -10.1714276490     4.5740063707    -0.5519533850
   10      H      -8.8194782435     5.5817391961    -0.0022040262
   11      C      -8.4687335206     3.5501026712     0.4710983827
   12      H      -7.3859544751     3.6867250942     0.5902992726
   13      H      -8.7679179308     3.8591223344     1.4803072493
   14      C      -8.8935210458     2.1293232568     0.1942745870
   15      H      -9.9858896041     2.0933200961     0.2906213839
   16      H      -8.7306280152     2.0129393431    -0.8848994700
   17      C      -8.1861664573     1.1157009772     1.0997359945
   18      C      -8.6234418469     1.1421998521     2.5218502807
   19      C      -9.8656978696     0.5830706812     2.8040408975
   20      H     -10.5123516442     0.1205482600     2.0635438309
   21      C     -10.3959057706     0.6011319786     4.0979274348
   22      H     -11.3249306281     0.1000511354     4.3526111656
   23      C      -9.5940908128     1.0464057768     5.1406057256
   24      H      -9.9420662326     1.0344440718     6.1694716182
   25      C      -8.3449525216     1.6471836137     4.8397062073
   26      H      -7.8421245414     2.1491685887     5.6620741950
   27      C      -7.8920509012     1.7751534309     3.5346997521
   28      H      -6.9647292267     2.3130054145     3.3601782468
   29      C      -3.1684295575    -0.5848834307     2.4942775235
   30      C      -4.4475473440    -2.5524341674     2.8787418085
   31      C      -2.9455950260    -4.8567203773    -0.7004960011
   32      C      -3.7069814789     1.3445495492    -2.1193631435
   33      C      -5.6742659976    -4.0824414059    -2.7463542080
   34      C      -4.3181894055    -1.1560183484     3.0030212680
   35      C      -4.2435393674    -0.8782742762    -3.7308090389
   36      C      -1.6894371975    -3.5093854734     0.9160562458
   37      C      -7.5924490906    -2.5598273062     0.4085822295
   38      C      -5.0553437852     1.0853326895    -2.5390472037
   39      C      -7.6562720456    -0.2134661138     0.5421853180
   40      C      -7.8131575981    -2.0533055031    -0.8502312665
   41      C      -6.5744225565    -0.6903550077    -2.9992416070
   42      C      -4.4134535623    -2.3007904626    -3.8976438845
   43      C      -6.4724597274    -1.6071193772     2.3385235313
   44      C      -3.1776657078    -3.9726166805    -2.6756751960
   45      C      -6.7102348340     0.8989187818     0.8888774558
   46      C      -5.9296668051     1.4582260969    -0.2529061837
   47      C      -4.3901276503    -4.6436047215    -2.3715550109
   48      C      -1.1448268507    -0.8471968249    -1.3597181652
   49      C      -1.3533245626    -3.0907487136    -1.4538915511
   50      C      -1.1012324783    -2.7716251861    -0.1054406787
   51      C      -2.1737662004    -2.7611389233     2.0046390481
   52      C      -4.5930111685     1.6575472449     0.1758032625
   53      C      -7.4414476935    -1.4848420650     1.2890686345
   54      C      -3.4132174976    -3.3735008426     2.4196129771
   55      C      -5.3359417161    -0.0207318925    -3.3633213945
   56      C      -5.7675584088    -2.8025779466     2.5081788875
   57      C      -7.3380676140    -2.7611505357    -1.9849373592
   58      C      -2.2430329408     1.0716089392    -0.3906847173
   59      C      -2.6305798292    -4.5616647580     0.6670183891
   60      C      -7.7789378437    -0.6604296176    -0.8545643833
   61      C      -1.4023469702    -0.6897732445     1.1011510317
   62      C      -6.6943633172    -2.0865689324    -3.0527942965
   63      C      -6.8937684222    -3.7813567989     0.5601375727
   64      C      -2.2733689167    -1.8174066745    -3.2425051029
   65      C      -2.8931310781    -0.5773883319    -3.4447756478
   66      C      -6.4406001694    -4.5042323412    -0.5336720474
   67      C      -3.4935489848     1.6398991227    -0.7635478169
   68      C      -6.1328701300     1.0435233057    -1.5882233758
   69      C      -1.8037687830     0.3066491867    -1.5142364858
   70      C      -5.5968570344     0.6211187726     1.8989081634
   71      C      -4.9621015615    -4.6900285095     1.2098435534
   72      C      -7.0783183709    -0.0122802857    -1.9457879158
   73      C      -6.6968176665    -3.9971873628    -1.8135767251
   74      C      -2.1212020698     0.5249822977     0.9478333266
   75      C      -4.2300914378    -5.1468462772    -1.1026364370
   76      C      -2.0603444326    -1.3841000855     2.1009798057
   77      C      -2.2591838263    -4.1789939541    -1.7132509370
   78      C      -6.0058701588    -3.8418657122     1.6365577254
   79      C      -5.2387536273    -5.0509432516    -0.1269324874
   80      C      -5.5436927796    -0.5879172006     2.6169169219
   81      C      -4.3802343283     1.1877851076     1.4385936452
   82      C      -1.3703912179    -1.9342479661    -2.2288565504
   83      C      -3.6057445556    -4.5008793801     1.6768202975
   84      C      -5.6313257600    -2.9109472155    -3.5055277704
   85      C      -2.6871241320     0.5267220523    -2.5296754359
   86      C      -3.1925180253    -2.8600478139    -3.5443102895
   87      C      -3.1776885132     0.6162083325     1.7899147986
   88      C      -0.9122226748    -1.3697756458    -0.0278316560
   89      O      11.0125923538    -4.1297670929    -2.3839391972
   90      C      11.5862781630    -5.0601843468    -3.3537651227
   91      H      11.5027152071    -4.6546767443    -4.3689103422
   92      H      11.1163808216    -6.0507756381    -3.3151078839
   93      H      12.6426037670    -5.1970405738    -3.0891832043
   94      O      11.1612154178    -5.5355464113    -0.5566790371
   95      C      10.9301749840    -4.4835470207    -1.0532186632
   96      C      10.5074792662    -3.2679245301    -0.1878578768
   97      H      10.8567991341    -2.3571416530    -0.6888490749
   98      H      10.9307471533    -3.3042802884     0.8238997792
   99      C       8.9357699334    -3.2643989876    -0.0502811939
  100      H       8.5725001718    -3.0591226842    -1.0646986226
  101      H       8.7033044984    -4.3126764408     0.1748925228
  102      C       8.5517159508    -2.2120637060     1.0048955655
  103      H       8.9861256813    -2.4701580652     1.9787869803
  104      H       9.0296106778    -1.2874860373     0.6597350748
  105      C       7.0092578844    -2.0901004668     1.0321550902
  106      C       6.3082062254    -3.2555376620     1.5269072658
  107      C       6.4923781271    -3.5082411077     2.8706932157
  108      H       7.1591910009    -2.8555960757     3.4258824208
  109      C       5.9782639000    -4.6935325057     3.4523373194
  110      H       6.0573460534    -4.9139166766     4.5130921593
  111      C       5.2823469627    -5.5992135093     2.5902935061
  112      H       4.7482781526    -6.4196414647     3.0601588870
  113      C       5.2017566526    -5.3732237496     1.2665133769
  114      H       4.7131119649    -6.0987286161     0.6234347986
  115      C       5.6192590163    -4.1770812613     0.7504543454
  116      H       5.5170348752    -4.0432689637    -0.3231752435
  117      C       2.7553839224    -0.2396094188    -1.8660278228
  118      C       1.9587812498    -0.2048289026     0.3749443988
  119      C       1.9398513506     4.1855045045     1.0376903781
  120      C       7.1404957484     2.4142820366    -2.1136877041
  121      C       4.9833602935     4.2604245948     2.8383608906
  122      C       2.7755391394    -0.7142784187    -0.5854939076
  123      C       7.0618114494     4.4249981324    -0.2054988866
  124      C       1.2918209396     2.9396626714    -0.8887492689
  125      C       4.9680889742     0.2047680751     3.0034274853
  126      C       7.8025090727     2.2012197606    -0.9019439916
  127      C       6.3258686287    -0.8878462366     1.4571408444
  128      C       6.1835409474     0.9382934094     2.8933952871
  129      C       7.6933908941     2.5946799963     1.2826905925
  130      C       6.2411452935     4.8988618184     0.7843906363
  131      C       3.8558097431    -1.1077509275     1.3457315602
  132      C       3.8546650092     5.3563252025     0.9722339352
  133      C       6.3879660366    -1.1612735930    -0.0139510605
  134      C       7.2141049684    -0.1512552482    -0.8961179430
  135      C       3.8020167635     4.7406813657     2.2401285793
  136      C       4.0693365869     3.9215668796    -2.8123999531
  137      C       2.7743451549     4.8483059655    -1.1384925907
  138      C       2.0487715820     3.7727555942    -1.7083192214
  139      C       1.2006710043     1.5467482846    -1.0939106699
  140      C       6.4289841106     0.0895934522    -2.0230887245
  141      C       4.9922099901    -0.8754624794     2.1334590228
  142      C       1.2061202701     0.9750137300     0.1867375662
  143      C       7.7317277675     3.2359732738     0.0516645098
  144      C       2.6333904657    -0.4274753210     1.6211915565
  145      C       6.1543367094     2.3004600081     3.1294022146
  146      C       5.2573649780     1.8386650769    -3.2404182032
  147      C       1.2620004719     3.0647875991     0.5264088468
  148      C       6.9896339983     0.3582427159     1.9348895823
  149      C       2.8580093695     1.8023020788    -2.9465195875
  150      C       6.9412779866     3.1508026685     2.3132975728
  151      C       3.7528032876     0.8503726392     3.2748836454
  152      C       5.1768056186     5.2083007578    -1.0811038287
  153      C       6.3459204010     4.5852993565    -1.3875363328
  154      C       3.7283127881     2.2036400981     3.4979450725
  155      C       6.4581348152     1.3475331148    -2.6502697525
  156      C       7.8627865203     0.9212229340    -0.2910751405
  157      C       5.2889134143     3.2453812834    -3.0948736713
  158      C       5.1163460903    -1.3395737258    -0.7765609049
  159      C       1.8003378355     1.7441919771     2.4981941003
  160      C       7.6743456436     1.2234017598     1.0643461937
  161      C       4.9254309422     2.9755777080     3.4569517631
  162      C       4.0747600949     1.1587043194    -3.1800438824
  163      C       2.5899430641     4.0359819093     2.2948827888
  164      C       2.0752584726     0.9964651140    -2.1077283026
  165      C       2.7045922225     5.0286583958     0.2105646836
  166      C       2.5289644322     0.5721391367     2.6660375449
  167      C       2.5902161294     2.7946994985     2.9706104720
  168      C       3.9157458617    -1.2896095229    -0.0519812547
  169      C       5.1928392293    -0.6024838013    -1.9841540660
  170      C       4.0303669165     4.8572690030    -1.7945665183
  171      C       1.2210222260     1.8956775516     1.2267226907
  172      C       6.2028536593     4.3086284610     2.0751149813
  173      C       6.4361838180     3.6143738155    -2.3498876768
  174      C       5.1074908495     5.4731090482     0.2696900238
  175      C       4.0271914817    -0.0761365452    -2.4807433274
  176      C       2.8737121909     3.1995046876    -2.7350856942
 ----------------------------------------------------------------

    9   -5804.2662667703      8.10E-06 Convergence criterion met
 Total energy in the final basis set = -5804.2662667703

                    Orbital Energies (a.u.)
 --------------------------------------------------------------

 Alpha MOs
 -- Occupied --
-19.207 -19.190 -19.140 -19.137 -10.322 -10.314 -10.251 -10.247
-10.237 -10.233 -10.232 -10.231 -10.229 -10.226 -10.223 -10.222
-10.222 -10.221 -10.220 -10.219 -10.219 -10.218 -10.217 -10.217
-10.217 -10.216 -10.215 -10.215 -10.215 -10.215 -10.215 -10.215
-10.215 -10.215 -10.214 -10.214 -10.214 -10.214 -10.214 -10.214
-10.214 -10.213 -10.213 -10.213 -10.213 -10.212 -10.212 -10.212
-10.212 -10.212 -10.212 -10.211 -10.211 -10.211 -10.211 -10.211
-10.211 -10.211 -10.211 -10.211 -10.211 -10.211 -10.211 -10.210
-10.210 -10.210 -10.210 -10.210 -10.210 -10.210 -10.210 -10.210
-10.210 -10.210 -10.209 -10.209 -10.209 -10.209 -10.209 -10.209
-10.209 -10.209 -10.209 -10.209 -10.209 -10.209 -10.208 -10.208
-10.208 -10.208 -10.208 -10.208 -10.208 -10.208 -10.208 -10.208
-10.207 -10.207 -10.207 -10.207 -10.207 -10.207 -10.207 -10.207
-10.207 -10.206 -10.206 -10.206 -10.206 -10.206 -10.205 -10.205
-10.205 -10.205 -10.205 -10.205 -10.205 -10.205 -10.204 -10.204
-10.204 -10.204 -10.204 -10.203 -10.203 -10.203 -10.202 -10.202
-10.202 -10.201 -10.200 -10.200 -10.198 -10.198 -10.197 -10.197
-10.196 -10.195 -10.195 -10.195 -10.195 -10.194 -10.194 -10.193
-10.191 -10.189 -10.188 -10.185  -1.119  -1.090  -1.020  -1.013
 -0.982  -0.977  -0.966  -0.963  -0.960  -0.958  -0.957  -0.953
 -0.935  -0.929  -0.928  -0.925  -0.922  -0.919  -0.918  -0.917
 -0.916  -0.914  -0.898  -0.890  -0.887  -0.884  -0.882  -0.878
 -0.876  -0.872  -0.855  -0.853  -0.839  -0.839  -0.837  -0.836
 -0.833  -0.827  -0.821  -0.818  -0.808  -0.801  -0.796  -0.793
 -0.793  -0.791  -0.790  -0.788  -0.786  -0.785  -0.782  -0.778
 -0.769  -0.768  -0.767  -0.767  -0.765  -0.764  -0.762  -0.761
 -0.754  -0.751  -0.747  -0.739  -0.733  -0.728  -0.713  -0.712
 -0.711  -0.709  -0.709  -0.708  -0.707  -0.706  -0.706  -0.705
 -0.704  -0.704  -0.702  -0.701  -0.698  -0.697  -0.669  -0.668
 -0.658  -0.656  -0.652  -0.651  -0.646  -0.643  -0.628  -0.628
 -0.625  -0.622  -0.621  -0.619  -0.617  -0.616  -0.614  -0.613
 -0.613  -0.611  -0.609  -0.609  -0.608  -0.607  -0.605  -0.605
 -0.603  -0.603  -0.601  -0.597  -0.571  -0.565  -0.562  -0.560
 -0.558  -0.557  -0.557  -0.555  -0.552  -0.552  -0.551  -0.549
 -0.535  -0.531  -0.530  -0.528  -0.524  -0.523  -0.522  -0.520
 -0.520  -0.517  -0.515  -0.515  -0.513  -0.513  -0.511  -0.508
 -0.507  -0.504  -0.503  -0.499  -0.496  -0.487  -0.486  -0.484
 -0.483  -0.482  -0.481  -0.480  -0.479  -0.476  -0.474  -0.473
 -0.470  -0.469  -0.468  -0.467  -0.467  -0.465  -0.464  -0.463
 -0.462  -0.461  -0.460  -0.458  -0.457  -0.457  -0.456  -0.455
 -0.454  -0.452  -0.451  -0.450  -0.448  -0.446  -0.440  -0.440
 -0.438  -0.438  -0.437  -0.436  -0.436  -0.435  -0.431  -0.430
 -0.427  -0.427  -0.426  -0.425  -0.423  -0.423  -0.422  -0.422
 -0.421  -0.419  -0.418  -0.417  -0.417  -0.416  -0.416  -0.415
 -0.414  -0.414  -0.413  -0.412  -0.410  -0.410  -0.409  -0.408
 -0.408  -0.407  -0.406  -0.403  -0.398  -0.396  -0.395  -0.393
 -0.391  -0.390  -0.390  -0.388  -0.385  -0.383  -0.383  -0.380
 -0.377  -0.375  -0.373  -0.371  -0.366  -0.365  -0.364  -0.363
 -0.360  -0.359  -0.358  -0.358  -0.357  -0.356  -0.355  -0.355
 -0.354  -0.353  -0.352  -0.352  -0.350  -0.349  -0.349  -0.348
 -0.346  -0.346  -0.344  -0.343  -0.343  -0.342  -0.340  -0.339
 -0.339  -0.338  -0.336  -0.335  -0.335  -0.334  -0.332  -0.331
 -0.330  -0.328  -0.327  -0.327  -0.324  -0.324  -0.322  -0.315
 -0.307  -0.306  -0.306  -0.300  -0.286  -0.281  -0.272  -0.268
 -0.268  -0.266  -0.266  -0.265  -0.263  -0.262  -0.262  -0.259
 -0.259  -0.257  -0.256  -0.255  -0.254  -0.253  -0.251  -0.249
 -0.246  -0.243  -0.241  -0.240  -0.221  -0.213  -0.210  -0.207
 -0.206  -0.204  -0.203  -0.199  -0.197  -0.193

          Ground-State Mulliken Net Atomic Charges

     Atom                 Charge (a.u.)
  ----------------------------------------
      1 O                    -0.434162
      2 C                    -0.091859
      3 H                     0.135544
      4 H                     0.128711
      5 H                     0.124522
      6 O                    -0.492811
      7 C                     0.616184
      8 C                    -0.279495
      9 H                     0.131458
     10 H                     0.135385
     11 C                    -0.171502
     12 H                     0.110539
     13 H                     0.096785
     14 C                    -0.188660
     15 H                     0.098432
     16 H                     0.137331
     17 C                     0.018547
     18 C                     0.093188
     19 C                    -0.103092
     20 H                     0.090098
     21 C                    -0.089638
     22 H                     0.088989
     23 C                    -0.081298
     24 H                     0.088301
     25 C                    -0.098570
     26 H                     0.086970
     27 C                    -0.097101
     28 H                     0.097584
     29 C                     0.002341
     30 C                     0.015077
     31 C                     0.003334
     32 C                    -0.002641
     33 C                    -0.019935
     34 C                    -0.036166
     35 C                     0.005380
     36 C                     0.000469
     37 C                     0.014333
     38 C                    -0.005786
     39 C                    -0.094074
     40 C                    -0.003452
     41 C                    -0.009822
     42 C                     0.006795
     43 C                    -0.005414
     44 C                     0.034873
     45 C                    -0.097728
     46 C                     0.042739
     47 C                    -0.012604
     48 C                     0.003652
     49 C                    -0.023932
     50 C                     0.002907
     51 C                    -0.012794
     52 C                     0.008050
     53 C                     0.043173
     54 C                     0.034278
     55 C                    -0.019255
     56 C                    -0.006130
     57 C                    -0.006832
     58 C                    -0.042155
     59 C                    -0.000730
     60 C                     0.021228
     61 C                    -0.001272
     62 C                    -0.003225
     63 C                    -0.014483
     64 C                    -0.001551
     65 C                    -0.024628
     66 C                     0.012356
     67 C                    -0.017781
     68 C                     0.030924
     69 C                     0.044551
     70 C                     0.005613
     71 C                    -0.011930
     72 C                     0.014357
     73 C                     0.010240
     74 C                    -0.013485
     75 C                    -0.003023
     76 C                     0.000529
     77 C                    -0.010210
     78 C                     0.005517
     79 C                     0.005619
     80 C                     0.007861
     81 C                    -0.000119
     82 C                     0.008180
     83 C                    -0.045758
     84 C                    -0.005600
     85 C                     0.006414
     86 C                    -0.010077
     87 C                     0.031126
     88 C                    -0.001627
     89 O                    -0.480387
     90 C                    -0.089873
     91 H                     0.128929
     92 H                     0.132682
     93 H                     0.127731
     94 O                    -0.442469
     95 C                     0.577459
     96 C                    -0.242438
     97 H                     0.115955
     98 H                     0.122047
     99 C                    -0.195061
    100 H                     0.116444
    101 H                     0.131041
    102 C                    -0.176406
    103 H                     0.108822
    104 H                     0.112722
    105 C                     0.021594
    106 C                     0.100882
    107 C                    -0.106940
    108 H                     0.087502
    109 C                    -0.099682
    110 H                     0.092756
    111 C                    -0.083340
    112 H                     0.087030
    113 C                    -0.077680
    114 H                     0.089285
    115 C                    -0.105487
    116 H                     0.087500
    117 C                    -0.044150
    118 C                     0.003554
    119 C                    -0.024005
    120 C                    -0.002614
    121 C                    -0.018293
    122 C                     0.033963
    123 C                    -0.015128
    124 C                     0.000888
    125 C                     0.003451
    126 C                    -0.025695
    127 C                    -0.110709
    128 C                     0.011621
    129 C                     0.008466
    130 C                     0.021256
    131 C                     0.019520
    132 C                    -0.015877
    133 C                    -0.105036
    134 C                     0.019782
    135 C                     0.007252
    136 C                     0.009854
    137 C                    -0.017804
    138 C                     0.001372
    139 C                    -0.019862
    140 C                     0.017919
    141 C                     0.032876
    142 C                    -0.007813
    143 C                     0.010571
    144 C                    -0.039634
    145 C                    -0.015336
    146 C                     0.009215
    147 C                    -0.002829
    148 C                     0.044811
    149 C                     0.006467
    150 C                    -0.023587
    151 C                     0.024475
    152 C                     0.017447
    153 C                     0.011637
    154 C                     0.004539
    155 C                    -0.011439
    156 C                    -0.007754
    157 C                    -0.034560
    158 C                    -0.012790
    159 C                    -0.029140
    160 C                     0.011530
    161 C                    -0.018616
    162 C                     0.011745
    163 C                    -0.003849
    164 C                    -0.002731
    165 C                     0.030458
    166 C                    -0.016035
    167 C                     0.006685
    168 C                     0.041758
    169 C                     0.008875
    170 C                     0.004654
    171 C                     0.066303
    172 C                     0.009402
    173 C                     0.005323
    174 C                    -0.023253
    175 C                    -0.003623
    176 C                    -0.014202
  ----------------------------------------
  Sum of atomic charges =     0.000000

                    Cartesian Multipole Moments
 -----------------------------------------------------------------
    Charge (ESU x 10^10)
                 0.0000
    Dipole Moment (Debye)
         X      -3.3690      Y       2.7762      Z      -0.4781
       Tot       4.3916
    Quadrupole Moments (Debye-Ang)
        XX    -744.9339     XY     -34.5918     YY    -798.0871
        XZ     -16.8770     YZ      -2.0134     ZZ    -788.6103

 Total job time:  861.30s(wall), 7255.61s(cpu)
        *  Thank you very much for using Q-Chem.  Have a nice day.  *
