 Q-Chem 4.4, Q-Chem, Inc., Pleasanton, CA (2016)
 Q-Chem 4.4.2 for Intel X86 Linux

User input:
--------------------------------------------------------------
$comment
SP
$end

$rem
MEM_STATIC 5000
MEM_TOTAL 20000
JOBTYPE SP
EXCHANGE B3LYP
BASIS 6-31g(d,p)
$end

$molecule
0 1
O          11.463000    -20.291000    -12.010000
C          10.994000    -19.720000    -13.257000
H          10.069000    -20.208000    -13.588000
H          11.735000    -19.677000    -14.065000
H          10.664000    -18.677000    -13.180000
O          11.976000    -22.308000    -13.039000
C          11.747000    -21.650000    -11.994000
C          11.580000    -22.186000    -10.555000
H          10.511000    -22.264000    -10.324000
H          11.896000    -21.336000     -9.937000
C          12.371000    -23.431000    -10.203000
H          12.394000    -24.140000    -11.040000
H          13.428000    -23.200000    -10.019000
C          11.817000    -24.301000     -9.030000
H          10.751000    -24.517000     -9.174000
H          12.318000    -25.266000     -9.173000
C          12.283000    -23.794000     -7.636000
C          11.623000    -22.531000     -7.161000
C          10.260000    -22.583000     -6.973000
H           9.688000    -23.497000     -6.847000
C           9.587000    -21.413000     -6.622000
H           8.588000    -21.379000     -6.200000
C          10.250000    -20.201000     -6.652000
H           9.612000    -19.359000     -6.398000
C          11.574000    -20.123000     -7.010000
H          12.060000    -19.170000     -7.197000
C          12.358000    -21.296000     -7.158000
H          13.402000    -21.261000     -7.453000
C          16.123000    -22.998000     -3.845000
C          14.220000    -23.830000     -2.602000
C          15.879000    -27.930000     -1.452000
C          17.149000    -26.240000     -7.480000
C          14.110000    -29.532000     -4.053000
C          14.759000    -23.084000     -3.683000
C          16.510000    -28.890000     -6.660000
C          16.946000    -25.740000     -1.662000
C          11.877000    -26.238000     -4.823000
C          15.960000    -26.869000     -7.909000
C          12.578000    -24.926000     -6.672000
C          12.169000    -27.134000     -5.861000
C          14.275000    -28.236000     -7.429000
C          15.988000    -29.657000     -5.573000
C          12.839000    -24.054000     -4.321000
C          16.364000    -29.335000     -3.200000
C          13.736000    -24.064000     -7.087000
C          14.855000    -24.749000     -7.743000
C          14.963000    -29.361000     -2.976000
C          18.839000    -26.370000     -4.464000
C          17.977000    -27.584000     -2.762000
C          18.023000    -26.263000     -2.415000
C          16.482000    -24.521000     -1.901000
C          16.066000    -24.123000     -7.299000
C          12.205000    -24.903000     -5.260000
C          15.049000    -24.508000     -1.729000
C          15.647000    -28.182000     -7.522000
C          12.981000    -24.372000     -2.983000
C          12.764000    -28.385000     -5.510000
C          18.108000    -24.705000     -6.132000
C          15.910000    -26.552000     -1.175000
C          12.667000    -26.397000     -6.958000
C          18.019000    -24.158000     -3.707000
C          13.796000    -28.966000     -6.300000
C          12.124000    -26.589000     -3.468000
C          17.882000    -28.597000     -4.906000
C          17.678000    -28.201000     -6.250000
C          12.672000    -27.884000     -3.133000
C          17.215000    -24.897000     -7.211000
C          14.827000    -26.106000     -8.057000
C          18.615000    -26.056000     -5.795000
C          14.416000    -23.201000     -6.086000
C          13.513000    -26.389000     -1.648000
C          13.734000    -26.917000     -7.684000
C          12.922000    -28.783000     -4.147000
C          17.845000    -23.807000     -5.140000
C          14.694000    -28.527000     -1.897000
C          16.979000    -23.719000     -2.951000
C          16.869000    -28.386000     -2.309000
C          12.670000    -25.702000     -2.550000
C          13.519000    -27.761000     -2.014000
C          13.910000    -23.197000     -4.721000
C          15.776000    -23.166000     -6.256000
C          18.472000    -27.703000     -4.021000
C          14.732000    -25.777000     -1.281000
C          14.644000    -29.675000     -5.404000
C          18.063000    -26.926000     -6.712000
C          16.880000    -29.449000     -4.471000
C          16.690000    -23.089000     -5.164000
C          18.580000    -25.442000     -3.450000
O          28.780000    -29.767000     -7.424000
C          29.612000    -30.466000     -8.401000
H          30.365000    -29.787000     -8.818000
H          29.024000    -30.906000     -9.216000
H          30.103000    -31.296000     -7.877000
O          27.256000    -31.475000     -7.112000
C          27.708000    -30.412000     -6.843000
C          27.121000    -29.565000     -5.684000
H          27.931000    -28.956000     -5.265000
H          26.690000    -30.184000     -4.887000
C          25.970000    -28.650000     -6.256000
H          26.485000    -27.945000     -6.920000
H          25.397000    -29.338000     -6.890000
C          25.236000    -28.007000     -5.066000
H          24.784000    -28.780000     -4.432000
H          26.027000    -27.518000     -4.485000
C          24.211000    -26.988000     -5.619000
C          23.106000    -27.564000     -6.355000
C          22.229000    -28.303000     -5.588000
H          22.451000    -28.423000     -4.532000
C          21.184000    -29.036000     -6.203000
H          20.442000    -29.594000     -5.639000
C          21.094000    -28.979000     -7.630000
H          20.204000    -29.400000     -8.088000
C          22.020000    -28.329000     -8.358000
H          21.961000    -28.341000     -9.442000
C          22.957000    -27.551000     -7.735000
H          23.671000    -27.037000     -8.373000
C          23.835000    -22.103000     -8.051000
C          21.744000    -22.334000     -6.941000
C          22.356000    -19.379000     -3.684000
C          27.611000    -22.782000     -4.643000
C          23.162000    -21.776000     -1.211000
C          22.837000    -22.881000     -7.537000
C          26.724000    -21.917000     -2.162000
C          22.957000    -19.244000     -5.987000
C          22.032000    -24.743000     -3.740000
C          27.157000    -23.740000     -3.733000
C          23.753000    -25.846000     -4.858000
C          23.107000    -24.919000     -2.823000
C          25.656000    -24.113000     -2.137000
C          25.599000    -21.403000     -1.572000
C          22.117000    -24.462000     -6.111000
C          23.978000    -19.681000     -2.161000
C          24.754000    -25.594000     -5.943000
C          26.175000    -25.078000     -5.501000
C          22.905000    -20.512000     -1.777000
C          26.409000    -19.593000     -5.403000
C          24.600000    -18.690000     -4.285000
C          24.244000    -18.834000     -5.649000
C          22.694000    -20.124000     -7.058000
C          26.494000    -24.053000     -6.391000
C          22.388000    -25.248000     -4.982000
C          21.662000    -20.963000     -6.613000
C          26.700000    -23.267000     -2.487000
C          21.272000    -23.318000     -6.010000
C          23.260000    -23.998000     -1.803000
C          26.990000    -21.676000     -6.524000
C          21.980000    -19.604000     -5.020000
C          24.174000    -25.511000     -3.468000
C          25.164000    -20.337000     -7.371000
C          24.569000    -23.595000     -1.439000
C          21.186000    -23.627000     -3.661000
C          26.263000    -19.914000     -3.004000
C          27.108000    -20.974000     -3.110000
C          21.349000    -22.711000     -2.653000
C          27.263000    -22.957000     -5.962000
C          26.454000    -24.901000     -4.149000
C          27.258000    -20.730000     -5.507000
C          24.388000    -24.695000     -7.078000
C          20.638000    -21.536000     -4.397000
C          25.456000    -25.017000     -3.172000
C          22.373000    -22.871000     -1.675000
C          25.985000    -21.465000     -7.424000
C          21.878000    -20.299000     -2.709000
C          23.853000    -20.718000     -7.690000
C          23.656000    -18.964000     -3.341000
C          20.720000    -22.880000     -4.743000
C          21.099000    -21.417000     -3.084000
C          23.088000    -24.167000     -7.091000
C          25.465000    -23.811000     -7.335000
C          25.904000    -19.232000     -4.167000
C          21.174000    -20.653000     -5.350000
C          24.526000    -22.232000     -1.151000
C          27.600000    -21.410000     -4.312000
C          25.339000    -20.128000     -2.004000
C          25.159000    -22.557000     -7.800000
C          25.373000    -19.410000     -6.325000
$end

--------------------------------------------------------------

             Standard Nuclear Orientation (Angstroms)
    I     Atom           X                Y                Z
 ----------------------------------------------------------------
    1      O      -8.3510851523     5.6126217964    -4.9218494236
    2      C      -8.9184902809     6.3857468444    -6.0087441197
    3      H      -9.9121193903     6.0088082576    -6.2806788448
    4      H      -8.2779578811     6.4992226829    -6.8922799021
    5      H      -9.1531553727     7.4250384392    -5.7489686863
    6      O      -8.1259973492     3.7377397129    -6.2725720650
    7      C      -8.1759435487     4.2506582586    -5.1272118847
    8      C      -8.2123412580     3.5236399572    -3.7648515813
    9      H      -9.2490068665     3.4792667111    -3.4105050966
   10      H      -7.7585281542     4.2542199390    -3.0832457150
   11      C      -7.4863489162     2.1943676654    -3.6901502162
   12      H      -7.6195513796     1.6137453132    -4.6115153923
   13      H      -6.3999833993     2.3305940366    -3.6145305133
   14      C      -7.9639519970     1.1998610758    -2.5844391597
   15      H      -9.0532696992     1.0732224776    -2.6175693438
   16      H      -7.5617201017     0.2365746759    -2.9205400586
   17      C      -7.2964630354     1.4702710458    -1.2064776456
   18      C      -7.7928624096     2.6896872963    -0.4832863367
   19      C      -9.1235599362     2.6953706682    -0.1296922306
   20      H      -9.7471893646     1.8098616602    -0.0560978501
   21      C      -9.6549763091     3.8416698908     0.4607522892
   22      H     -10.5907229758     3.8759712747     1.0088787260
   23      C      -8.9062011206     5.0019753823     0.5101474669
   24      H      -9.4405602972     5.8362108834     0.9562813021
   25      C      -7.6322895158     5.0489509552    -0.0018745237
   26      H      -7.0979462564     5.9871057366    -0.1189936392
   27      C      -6.9670724431     3.8634884273    -0.4076501283
   28      H      -5.9661853597     3.8761917356    -0.8274711286
   29      C      -2.9812470407     1.4711555302     2.1296589129
   30      C      -4.7826063969     0.5874047043     3.4834576231
   31      C      -3.3290440295    -3.7303478919     3.8425536572
   32      C      -2.6560787280    -1.2685079764    -2.0134044995
   33      C      -5.5167874863    -4.8271743669     1.2985968473
   34      C      -4.3187294169     1.4470815569     2.4532285919
   35      C      -3.4011040969    -3.9646087541    -1.4850118464
   36      C      -2.1242636131    -1.6031439744     3.7956853115
   37      C      -7.5571317591    -1.3248643101     1.2775133284
   38      C      -3.9338522095    -1.7542172643    -2.3666528789
   39      C      -6.9794945104     0.1947772028    -0.4512350284
   40      C      -7.4628862975    -2.0777281120     0.0985994686
   41      C      -5.6527994861    -3.0694978562    -1.8630943172
   42      C      -3.8491077910    -4.8469421175    -0.4539335148
   43      C      -6.3719318581     0.6999855777     1.9427863001
   44      C      -3.1687524740    -4.8951809865     1.8722175237
   45      C      -5.8144512004     1.0345008557    -0.8914296135
   46      C      -4.8394730560     0.3837024701    -1.7732465328
   47      C      -4.5307071981    -4.8666766897     2.2696088100
   48      C      -0.6345251321    -1.9372535865     0.7133804879
   49      C      -1.3812389637    -3.3289182034     2.3318155492
   50      C      -1.1895526829    -2.0773406577     2.8459906329
   51      C      -2.5152253152    -0.3360853044     3.7862368064
   52      C      -3.5383773308     0.8629216396    -1.4085111472
   53      C      -7.1786293475     0.0364393020     0.9870543812
   54      C      -3.9119501200    -0.2595724625     4.1419721076
   55      C      -4.3017193830    -3.0874939067    -2.1242603512
   56      C      -6.0972435540     0.1837648259     3.1956208746
   57      C      -6.9314711012    -3.4006716404     0.1968100071
   58      C      -1.4245710118    -0.0066889713    -0.6047840597
   59      C      -3.1560187076    -2.4114341036     4.2976389867
   60      C      -7.0422072823    -1.2220935140    -0.9432741326
   61      C      -1.1803792274     0.1884879782     1.8630148241
   62      C      -6.0503067777    -3.9240188086    -0.7912902796
   63      C      -7.1791181460    -1.8826193497     2.5290124391
   64      C      -1.8110413886    -4.0135504855     0.1005651119
   65      C      -2.1416165438    -3.4156016051    -1.1395740751
   66      C      -6.6996164767    -3.2437992920     2.6116036835
   67      C      -2.4521440918     0.0148348756    -1.5754458387
   68      C      -5.0122703567    -0.9093095932    -2.2622147290
   69      C      -0.9898526927    -1.4209286474    -0.5225337008
   70      C      -4.9537308781     1.7000692418     0.1211656906
   71      C      -5.5717482505    -2.0339951416     4.1646066396
   72      C      -6.1139390511    -1.6966123674    -1.8647484668
   73      C      -6.6443177097    -4.0004999532     1.4612806176
   74      C      -1.4954359505     0.7530072980     0.5254711056
   75      C      -4.6022253571    -4.1823894378     3.4774143034
   76      C      -2.0847793768     0.5770093571     2.7994807914
   77      C      -2.4875093223    -4.1179697001     2.8110238853
   78      C      -6.4590007271    -1.1730730939     3.4806342200
   79      C      -5.7182802331    -3.3364050349     3.6181335406
   80      C      -5.2916027036     1.5379784105     1.5278803710
   81      C      -3.6252072700     1.6751807668    -0.2166664963
   82      C      -1.0507525507    -3.2950397647     1.0150399486
   83      C      -4.2730181851    -1.5579662350     4.4507721463
   84      C      -5.1605662688    -4.8061089910    -0.1168425524
   85      C      -1.7144402179    -2.1134600979    -1.4700916719
   86      C      -2.8185149797    -4.8559276319     0.5416214649
   87      C      -2.5844273826     1.5369101157     0.7484487575
   88      C      -0.6964300066    -1.1513574139     1.8688007545
   89      O       8.5819582388    -5.4783603388    -3.9386821991
   90      C       9.2335425209    -6.0788538282    -5.1006630477
   91      H       9.9829961006    -5.3945435005    -5.5153649976
   92      H       8.5195976672    -6.3592506133    -5.8850286440
   93      H       9.7160439933    -7.0046121840    -4.7619584628
   94      O       6.9752816065    -7.1160651042    -3.6672097309
   95      C       7.5390231135    -6.1330896947    -3.3170828144
   96      C       7.1633405055    -5.4278804059    -1.9878719820
   97      H       8.0632380508    -4.9370609617    -1.5982276811
   98      H       6.7825987998    -6.1277581032    -1.2333271109
   99      C       6.0286617874    -4.3704633572    -2.2769799063
  100      H       6.5152060735    -3.6100691574    -2.9000539939
  101      H       5.3314440305    -4.9228662528    -2.9191383294
  102      C       5.4949975856    -3.8621165093    -0.9260206168
  103      H       5.0618350075    -4.6892213326    -0.3497769251
  104      H       6.3858661282    -3.5120475356    -0.3910739341
  105      C       4.4955374998    -2.7125235512    -1.1986202640
  106      C       3.2685345207    -3.1067063361    -1.8570886547
  107      C       2.4332890486    -3.8932002155    -1.0907131729
  108      H       2.7692732025    -4.1780636634    -0.0983485905
  109      C       1.2676236269    -4.4636280495    -1.6593740656
  110      H       0.5561693047    -5.0503704231    -1.0852746540
  111      C       1.0130870755    -4.1955106803    -3.0417641047
  112      H       0.0442857906    -4.4900874837    -3.4338783446
  113      C       1.8944113814    -3.5055749623    -3.7882332420
  114      H       1.7059389743    -3.3570939263    -4.8470592587
  115      C       2.9577126508    -2.8851903000    -3.1916636473
  116      H       3.6291487700    -2.3294746320    -3.8408089579
  117      C       4.2213429390     2.4865073993    -2.8761540247
  118      C       2.2657670540     2.2271244532    -1.5471749257
  119      C       3.4939311574     4.6367921832     1.9741504450
  120      C       8.3105493167     1.0900446664    -0.1081287293
  121      C       4.3960114897     1.8623357858     3.9740546359
  122      C       3.2331108492     1.7055440702    -2.3479707087
  123      C       7.7968625413     1.6404770352     2.5608607993
  124      C       3.8251189064     5.0658684916    -0.3473669891
  125      C       2.7409491059    -0.6324073895     1.2330958630
  126      C       7.8936046257     0.0404690498     0.7143845835
  127      C       4.2235253302    -1.6664231167    -0.2369902620
  128      C       3.9001488151    -1.0051844609     1.9711902264
  129      C       6.5685788356    -0.4658497088     2.4253182380
  130      C       6.7945148663     2.1323120413     3.3554163136
  131      C       2.5649350083    -0.0174367407    -1.0687853544
  132      C       5.2566879226     4.0181917021     3.2197984818
  133      C       5.1049687162    -1.3225705391    -1.3978317509
  134      C       6.6049351729    -0.9646693009    -1.0771008162
  135      C       4.1745365848     3.2083119090     3.6227739188
  136      C       7.2834486635     4.4235155968    -0.2667503045
  137      C       5.6979080036     5.2654547993     1.1875581893
  138      C       5.1716650726     5.3423992668    -0.1258784961
  139      C       3.3674174951     4.3678657546    -1.4848693395
  140      C       6.8959689285     0.1565232532    -1.8534464930
  141      C       2.9052616826    -0.9735993180    -0.1014132022
  142      C       2.3324755939     3.5387350510    -1.0283525956
  143      C       7.6272691870     0.3557208023     2.0615207186
  144      C       1.8314460814     1.1499487485    -0.7052374019
  145      C       4.2461610904    -0.2525234527     3.0783609053
  146      C       7.5596398672     2.4925508856    -1.7255802135
  147      C       2.9448019955     4.6309321043     0.6798089819
  148      C       4.8323524983    -1.5625163055     1.1195121722
  149      C       5.7577983049     4.0501504419    -2.1401361282
  150      C       5.6170224260     0.0119769409     3.3215989374
  151      C       2.0016279309     0.5105679801     1.5713627762
  152      C       7.3992521380     3.7687638043     2.0650832328
  153      C       8.1388110749     2.6850567087     1.7080223000
  154      C       2.3557110219     1.2594078509     2.6647762445
  155      C       7.7951245502     1.1293757537    -1.3826013166
  156      C       7.0561601034    -1.0025321510     0.2389677483
  157      C       8.0210945085     3.2632295794    -0.6328117270
  158      C       4.6788723121    -0.2480761057    -2.3434984824
  159      C       1.5375232156     2.7158141261     1.2028831310
  160      C       6.1756126625    -1.1966500587     1.3117880698
  161      C       3.4729718972     0.8967655979     3.4715468023
  162      C       6.4745218165     2.8931106915    -2.4512637932
  163      C       3.0639918729     3.6168315280     2.8687685052
  164      C       4.3920637846     3.8009955831    -2.3359270285
  165      C       4.8543358409     4.9167348824     2.1995504946
  166      C       1.4708130094     1.4334696576     0.6700431809
  167      C       2.1596260170     2.6150649595     2.4492734030
  168      C       3.4326072003     0.3555575452    -2.1167768762
  169      C       5.7843165769     0.5955404352    -2.6150461012
  170      C       6.9595287469     4.6325708605     1.0615620775
  171      C       2.0245499362     3.6924713376     0.3173665221
  172      C       5.7169297277     1.3190592243     3.7950083115
  173      C       8.4479635301     2.3978225479     0.4046093584
  174      C       6.5869060046     3.4699677503     3.1376440365
  175      C       5.5255839364     1.9200692609    -2.8621448882
  176      C       6.1628072561     4.8015187968    -1.0138416087
 ----------------------------------------------------------------

    9   -5804.2653939264      8.99E-06 Convergence criterion met
 Total energy in the final basis set = -5804.2653939264

                    Orbital Energies (a.u.)
 --------------------------------------------------------------

 Alpha MOs
 -- Occupied --
-19.193 -19.190 -19.139 -19.137 -10.324 -10.314 -10.248 -10.245
-10.240 -10.239 -10.239 -10.235 -10.231 -10.229 -10.228 -10.226
-10.225 -10.225 -10.225 -10.225 -10.224 -10.224 -10.223 -10.222
-10.222 -10.221 -10.221 -10.220 -10.220 -10.220 -10.220 -10.219
-10.219 -10.219 -10.218 -10.218 -10.218 -10.217 -10.217 -10.217
-10.217 -10.217 -10.217 -10.217 -10.217 -10.217 -10.216 -10.216
-10.216 -10.216 -10.216 -10.216 -10.216 -10.216 -10.216 -10.216
-10.216 -10.216 -10.216 -10.216 -10.215 -10.215 -10.215 -10.215
-10.215 -10.215 -10.215 -10.215 -10.215 -10.215 -10.215 -10.214
-10.214 -10.214 -10.214 -10.214 -10.214 -10.214 -10.213 -10.213
-10.213 -10.213 -10.213 -10.213 -10.213 -10.213 -10.213 -10.213
-10.213 -10.213 -10.213 -10.212 -10.212 -10.212 -10.212 -10.212
-10.212 -10.212 -10.211 -10.211 -10.211 -10.211 -10.211 -10.211
-10.211 -10.210 -10.210 -10.210 -10.209 -10.209 -10.209 -10.209
-10.209 -10.209 -10.209 -10.209 -10.209 -10.208 -10.208 -10.207
-10.207 -10.207 -10.207 -10.207 -10.207 -10.206 -10.206 -10.206
-10.205 -10.205 -10.205 -10.205 -10.205 -10.205 -10.204 -10.203
-10.199 -10.198 -10.197 -10.197 -10.196 -10.196 -10.195 -10.193
-10.192 -10.188 -10.188 -10.185  -1.090  -1.079  -1.021  -0.994
 -0.984  -0.983  -0.968  -0.966  -0.966  -0.962  -0.960  -0.959
 -0.937  -0.933  -0.930  -0.928  -0.927  -0.925  -0.922  -0.921
 -0.920  -0.919  -0.900  -0.897  -0.890  -0.886  -0.884  -0.880
 -0.878  -0.875  -0.858  -0.856  -0.842  -0.842  -0.841  -0.841
 -0.839  -0.838  -0.823  -0.820  -0.802  -0.802  -0.799  -0.798
 -0.797  -0.796  -0.795  -0.794  -0.792  -0.790  -0.784  -0.784
 -0.773  -0.771  -0.771  -0.770  -0.769  -0.767  -0.766  -0.765
 -0.756  -0.747  -0.745  -0.740  -0.735  -0.730  -0.720  -0.715
 -0.715  -0.714  -0.714  -0.711  -0.711  -0.711  -0.709  -0.709
 -0.708  -0.707  -0.706  -0.702  -0.701  -0.698  -0.674  -0.671
 -0.660  -0.660  -0.659  -0.658  -0.648  -0.647  -0.632  -0.630
 -0.629  -0.627  -0.624  -0.623  -0.621  -0.619  -0.619  -0.618
 -0.616  -0.616  -0.615  -0.613  -0.613  -0.610  -0.610  -0.609
 -0.608  -0.606  -0.604  -0.603  -0.566  -0.565  -0.561  -0.561
 -0.560  -0.560  -0.559  -0.559  -0.557  -0.556  -0.554  -0.554
 -0.537  -0.536  -0.533  -0.532  -0.531  -0.527  -0.526  -0.525
 -0.525  -0.522  -0.517  -0.517  -0.517  -0.517  -0.515  -0.512
 -0.507  -0.505  -0.497  -0.495  -0.489  -0.488  -0.487  -0.485
 -0.485  -0.484  -0.482  -0.482  -0.480  -0.478  -0.476  -0.474
 -0.473  -0.472  -0.470  -0.469  -0.468  -0.468  -0.467  -0.466
 -0.466  -0.464  -0.463  -0.463  -0.462  -0.461  -0.460  -0.458
 -0.457  -0.455  -0.453  -0.451  -0.450  -0.447  -0.445  -0.442
 -0.441  -0.441  -0.439  -0.439  -0.438  -0.438  -0.436  -0.433
 -0.433  -0.429  -0.429  -0.428  -0.428  -0.425  -0.424  -0.424
 -0.423  -0.423  -0.422  -0.421  -0.420  -0.419  -0.419  -0.419
 -0.418  -0.417  -0.416  -0.416  -0.416  -0.415  -0.414  -0.413
 -0.412  -0.412  -0.409  -0.408  -0.402  -0.399  -0.398  -0.397
 -0.393  -0.393  -0.392  -0.390  -0.387  -0.387  -0.385  -0.382
 -0.381  -0.380  -0.378  -0.376  -0.371  -0.368  -0.367  -0.366
 -0.363  -0.362  -0.361  -0.360  -0.360  -0.358  -0.358  -0.357
 -0.357  -0.355  -0.355  -0.353  -0.353  -0.352  -0.350  -0.350
 -0.349  -0.348  -0.347  -0.346  -0.345  -0.345  -0.344  -0.344
 -0.342  -0.341  -0.341  -0.340  -0.338  -0.337  -0.336  -0.334
 -0.334  -0.332  -0.330  -0.330  -0.328  -0.325  -0.325  -0.323
 -0.308  -0.307  -0.300  -0.297  -0.288  -0.286  -0.275  -0.271
 -0.269  -0.269  -0.269  -0.267  -0.267  -0.266  -0.265  -0.264
 -0.264  -0.262  -0.261  -0.260  -0.259  -0.259  -0.255  -0.254
 -0.252  -0.245  -0.243  -0.241  -0.223  -0.218  -0.215  -0.211
 -0.210  -0.209  -0.209  -0.204  -0.200  -0.197

          Ground-State Mulliken Net Atomic Charges

     Atom                 Charge (a.u.)
  ----------------------------------------
      1 O                    -0.466686
      2 C                    -0.083792
      3 H                     0.121272
      4 H                     0.131929
      5 H                     0.118810
      6 O                    -0.479375
      7 C                     0.589508
      8 C                    -0.255336
      9 H                     0.140087
     10 H                     0.139957
     11 C                    -0.182873
     12 H                     0.124444
     13 H                     0.107897
     14 C                    -0.195788
     15 H                     0.112475
     16 H                     0.108569
     17 C                     0.025889
     18 C                     0.078335
     19 C                    -0.103630
     20 H                     0.095334
     21 C                    -0.095310
     22 H                     0.092367
     23 C                    -0.064344
     24 H                     0.088188
     25 C                    -0.101683
     26 H                     0.093712
     27 C                    -0.098977
     28 H                     0.105371
     29 C                    -0.022863
     30 C                     0.005237
     31 C                    -0.020457
     32 C                     0.013029
     33 C                    -0.010073
     34 C                     0.017656
     35 C                    -0.012201
     36 C                     0.044192
     37 C                    -0.021011
     38 C                     0.008210
     39 C                    -0.086385
     40 C                    -0.001079
     41 C                    -0.044858
     42 C                    -0.017010
     43 C                     0.014306
     44 C                    -0.011538
     45 C                    -0.085852
     46 C                     0.051049
     47 C                     0.022690
     48 C                     0.013986
     49 C                     0.021911
     50 C                    -0.031906
     51 C                    -0.014079
     52 C                    -0.033933
     53 C                     0.035491
     54 C                    -0.007657
     55 C                     0.017854
     56 C                    -0.024696
     57 C                     0.000736
     58 C                     0.001047
     59 C                    -0.008957
     60 C                     0.034768
     61 C                    -0.013079
     62 C                     0.008745
     63 C                     0.012743
     64 C                     0.003463
     65 C                     0.000372
     66 C                     0.002102
     67 C                     0.006386
     68 C                    -0.003088
     69 C                    -0.001289
     70 C                     0.011016
     71 C                    -0.011293
     72 C                    -0.008088
     73 C                    -0.016674
     74 C                     0.020993
     75 C                    -0.003213
     76 C                     0.003190
     77 C                     0.017492
     78 C                    -0.008486
     79 C                     0.003486
     80 C                     0.009797
     81 C                    -0.002624
     82 C                    -0.023459
     83 C                     0.002354
     84 C                     0.005274
     85 C                    -0.000949
     86 C                     0.000019
     87 C                    -0.007743
     88 C                     0.005027
     89 O                    -0.480701
     90 C                    -0.089813
     91 H                     0.128819
     92 H                     0.132722
     93 H                     0.127901
     94 O                    -0.441943
     95 C                     0.577348
     96 C                    -0.242718
     97 H                     0.115859
     98 H                     0.122506
     99 C                    -0.195388
    100 H                     0.116124
    101 H                     0.131619
    102 C                    -0.176345
    103 H                     0.109529
    104 H                     0.112462
    105 C                     0.023269
    106 C                     0.100033
    107 C                    -0.109063
    108 H                     0.087577
    109 C                    -0.100167
    110 H                     0.094154
    111 C                    -0.084471
    112 H                     0.088123
    113 C                    -0.079171
    114 H                     0.088492
    115 C                    -0.106003
    116 H                     0.086419
    117 C                    -0.043984
    118 C                    -0.013280
    119 C                    -0.021615
    120 C                    -0.002162
    121 C                    -0.016643
    122 C                     0.036854
    123 C                    -0.015107
    124 C                     0.004052
    125 C                     0.001088
    126 C                    -0.025958
    127 C                    -0.112843
    128 C                     0.011383
    129 C                     0.008727
    130 C                     0.020868
    131 C                     0.020567
    132 C                    -0.015725
    133 C                    -0.107017
    134 C                     0.021207
    135 C                     0.008054
    136 C                     0.009574
    137 C                    -0.016402
    138 C                     0.001929
    139 C                    -0.031325
    140 C                     0.017753
    141 C                     0.036674
    142 C                    -0.009348
    143 C                     0.011811
    144 C                    -0.034315
    145 C                    -0.014055
    146 C                     0.009260
    147 C                    -0.003960
    148 C                     0.046662
    149 C                     0.007213
    150 C                    -0.023940
    151 C                     0.037219
    152 C                     0.017415
    153 C                     0.012209
    154 C                     0.003841
    155 C                    -0.011210
    156 C                    -0.007760
    157 C                    -0.033561
    158 C                    -0.011633
    159 C                    -0.029674
    160 C                     0.011026
    161 C                    -0.019077
    162 C                     0.012340
    163 C                    -0.004588
    164 C                     0.000173
    165 C                     0.029092
    166 C                    -0.015280
    167 C                     0.003893
    168 C                     0.040723
    169 C                     0.009488
    170 C                     0.004738
    171 C                     0.063322
    172 C                     0.009995
    173 C                     0.005929
    174 C                    -0.021852
    175 C                    -0.002945
    176 C                    -0.013425
  ----------------------------------------
  Sum of atomic charges =     0.000000

                    Cartesian Multipole Moments
 -----------------------------------------------------------------
    Charge (ESU x 10^10)
                 0.0000
    Dipole Moment (Debye)
         X      -1.7440      Y       1.9250      Z      -0.3334
       Tot       2.6189
    Quadrupole Moments (Debye-Ang)
        XX    -750.4471     XY     -35.1611     YY    -802.6667
        XZ     -16.5645     YZ      -4.3833     ZZ    -817.7665

 Total job time:  862.38s(wall), 7350.95s(cpu)
        *  Thank you very much for using Q-Chem.  Have a nice day.  *
