 Q-Chem 4.4, Q-Chem, Inc., Pleasanton, CA (2016)
 Q-Chem 4.4.2 for Intel X86 Linux

User input:
--------------------------------------------------------------
$comment
SP
$end

$rem
MEM_STATIC 5000
MEM_TOTAL 20000
JOBTYPE SP
EXCHANGE B3LYP
BASIS 6-31g(d,p)
$end

$molecule
0 1
O         -10.566000     18.278000      8.212000
C         -11.547000     18.734000      7.298000
H         -12.504000     18.909000      7.805000
H         -11.667000     17.955000      6.535000
H         -11.251000     19.659000      6.788000
O          -8.912000     19.164000      6.913000
C          -9.260000     18.509000      7.900000
C          -8.279000     17.859000      8.849000
H          -8.470000     18.276000      9.845000
H          -7.215000     17.971000      8.608000
C          -8.373000     16.377000      8.979000
H          -7.559000     16.045000      9.634000
H          -9.348000     16.101000      9.397000
C          -8.280000     15.734000      7.583000
H          -9.042000     16.167000      6.924000
H          -7.340000     15.984000      7.078000
C          -8.460000     14.238000      7.493000
C          -9.893000     13.896000      7.601000
C         -10.765000     14.232000      6.542000
H         -10.357000     14.887000      5.778000
C         -12.155000     13.944000      6.675000
H         -12.825000     14.301000      5.898000
C         -12.544000     13.110000      7.767000
H         -13.529000     12.653000      7.786000
C         -11.710000     12.899000      8.838000
H         -12.147000     12.387000      9.691000
C         -10.381000     13.263000      8.764000
H          -9.745000     12.970000      9.594000
C          -6.546000      9.167000      8.521000
C          -7.675000      8.907000      6.368000
C          -3.990000      8.397000      3.814000
C          -3.145000     13.005000      8.391000
C          -3.909000     11.782000      2.820000
C          -7.592000      9.517000      7.618000
C          -2.129000     13.094000      5.724000
C          -4.493000      7.541000      6.068000
C          -7.591000     12.367000      4.248000
C          -3.578000     13.965000      7.437000
C          -7.668000     13.481000      6.415000
C          -6.664000     13.444000      4.193000
C          -4.212000     14.319000      5.219000
C          -2.159000     12.503000      4.425000
C          -8.258000     11.086000      6.243000
C          -2.429000     10.126000      3.756000
C          -7.355000     13.257000      7.879000
C          -5.909000     13.660000      8.295000
C          -3.511000     10.490000      2.975000
C          -2.237000      9.585000      7.785000
C          -2.405000      8.713000      5.697000
C          -3.246000      7.955000      6.542000
C          -5.678000      7.639000      6.824000
C          -5.423000     12.572000      9.073000
C          -8.115000     12.360000      5.575000
C          -6.732000      7.950000      5.948000
C          -3.124000     13.983000      6.100000
C          -8.107000      9.912000      5.490000
C          -5.473000     13.256000      3.444000
C          -3.571000     10.921000      9.337000
C          -4.823000      7.814000      4.768000
C          -6.584000     13.981000      5.510000
C          -4.346000      8.710000      8.599000
C          -4.245000     13.672000      3.929000
C          -7.369000     11.127000      3.574000
C          -1.458000     10.981000      5.867000
C          -1.603000     12.152000      6.625000
C          -6.269000     11.032000      2.788000
C          -4.009000     12.242000      9.141000
C          -4.984000     14.251000      7.375000
C          -2.384000     10.761000      8.526000
C          -7.480000     11.863000      8.396000
C          -6.649000      9.004000      3.817000
C          -5.346000     14.426000      6.025000
C          -5.259000     12.090000      2.737000
C          -4.542000      9.882000      9.318000
C          -4.454000      9.440000      2.976000
C          -5.573000      8.278000      8.110000
C          -2.760000      8.913000      4.348000
C          -7.685000      9.895000      4.153000
C          -5.809000      9.680000      2.857000
C          -8.059000     10.836000      7.590000
C          -6.382000     11.553000      9.165000
C          -1.752000      9.716000      6.428000
C          -6.172000      8.064000      4.698000
C          -3.234000     12.765000      3.537000
C          -2.177000     12.035000      7.948000
C          -1.776000     11.184000      4.510000
C          -5.901000     10.204000      9.279000
C          -3.181000      8.534000      7.777000
O         -11.172000      8.572000      9.938000
C         -10.786000      9.475000      8.932000
H          -9.928000      9.029000      8.415000
H         -10.352000     10.376000      9.383000
H         -11.586000      9.740000      8.230000
O          -8.964000      8.051000     10.368000
C         -10.138000      7.789000     10.486000
C         -10.607000      6.647000     11.340000
H          -9.915000      6.681000     12.191000
H         -10.222000      5.766000     10.813000
C         -12.048000      6.794000     11.827000
H         -12.192000      6.221000     12.751000
H         -12.245000      7.824000     12.151000
C         -13.166000      6.355000     10.845000
H         -14.162000      6.435000     11.299000
H         -13.190000      7.182000     10.125000
C         -13.074000      4.930000     10.156000
C         -13.214000      3.822000     11.178000
C         -14.452000      3.551000     11.743000
H         -15.284000      4.195000     11.472000
C         -14.571000      2.582000     12.725000
H         -15.580000      2.500000     13.118000
C         -13.427000      1.890000     13.213000
H         -13.488000      1.249000     14.088000
C         -12.141000      2.240000     12.718000
H         -11.274000      1.871000     13.258000
C         -12.081000      3.198000     11.735000
H         -11.127000      3.492000     11.307000
C         -10.446000      1.519000      6.847000
C         -12.748000      0.956000      6.586000
C         -13.302000      2.543000      2.400000
C          -9.870000      6.551000      5.973000
C         -14.925000      5.428000      3.474000
C         -11.751000      1.369000      7.419000
C         -11.831000      7.311000      4.053000
C         -11.407000      1.313000      3.335000
C         -15.152000      4.016000      7.221000
C         -11.061000      7.158000      6.398000
C         -13.615000      4.811000      8.805000
C         -15.103000      5.424000      7.027000
C         -13.326000      7.373000      6.022000
C         -12.881000      6.800000      3.274000
C         -13.625000      2.415000      8.118000
C         -13.077000      4.766000      1.980000
C         -12.126000      4.683000      9.039000
C         -11.198000      5.687000      8.280000
C         -14.359000      4.471000      2.584000
C          -9.392000      4.148000      3.405000
C         -11.024000      3.432000      2.151000
C         -10.494000      2.284000      2.821000
C         -11.225000      0.757000      4.631000
C         -10.071000      5.018000      7.854000
C         -14.340000      3.620000      8.258000
C         -12.470000      0.643000      5.218000
C         -12.047000      7.493000      5.427000
C         -13.926000      1.534000      7.039000
C         -15.292000      5.864000      5.707000
C          -8.904000      4.492000      5.766000
C         -12.797000      1.480000      3.123000
C         -14.105000      5.935000      7.867000
C          -9.309000      2.217000      4.947000
C         -14.380000      6.853000      5.216000
C         -15.505000      3.098000      6.207000
C         -10.983000      5.819000      2.599000
C         -10.641000      6.678000      3.648000
C         -15.682000      3.577000      4.863000
C          -9.376000      5.430000      6.716000
C         -11.769000      6.686000      7.493000
C          -9.132000      4.988000      4.488000
C         -11.441000      3.405000      8.752000
C         -14.688000      1.534000      4.696000
C         -13.185000      6.838000      7.319000
C         -15.539000      4.987000      4.596000
C          -9.094000      3.099000      6.037000
C         -14.508000      3.096000      2.757000
C         -10.151000      1.210000      5.437000
C         -12.428000      3.507000      1.993000
C         -14.889000      1.846000      6.073000
C         -15.211000      2.619000      3.928000
C         -12.216000      2.278000      8.402000
C         -10.201000      3.642000      8.115000
C         -10.310000      4.596000      2.499000
C         -13.447000      1.007000      4.249000
C         -14.166000      6.533000      3.816000
C          -9.669000      6.251000      4.600000
C         -12.353000      5.914000      2.326000
C          -9.768000      2.692000      7.184000
C          -9.488000      2.770000      3.658000
$end

--------------------------------------------------------------

             Standard Nuclear Orientation (Angstroms)
    I     Atom           X                Y                Z
 ----------------------------------------------------------------
    1      O      -7.1651764591    -6.9065896657    -2.5343517173
    2      C      -6.9386042783    -7.2903006148    -3.8786448232
    3      H      -6.5033618148    -8.2959440681    -3.9312589159
    4      H      -6.2433134294    -6.5606812418    -4.3118147737
    5      H      -7.8551376289    -7.2776133277    -4.4812613265
    6      O      -8.8664979590    -5.5339249200    -3.1896452770
    7      C      -8.1348725372    -5.9786033441    -2.3001041924
    8      C      -8.2064855639    -5.5165971831    -0.8624380693
    9      H      -8.4257504501    -6.3999552722    -0.2508929802
   10      H      -8.9356355256    -4.7295069898    -0.6353910238
   11      C      -6.9660573527    -4.9059949213    -0.3051565150
   12      H      -7.1910066261    -4.5542070169     0.7084943592
   13      H      -6.1595818607    -5.6482369746    -0.2910492392
   14      C      -6.5069010838    -3.7552441288    -1.2194114763
   15      H      -6.3939140031    -4.1208331379    -2.2470264801
   16      H      -7.2714691895    -2.9756274103    -1.3129977139
   17      C      -5.2033498014    -3.0744596937    -0.8791136551
   18      C      -4.0683915677    -3.9196998928    -1.3028539216
   19      C      -3.8113588445    -4.0907412392    -2.6810556620
   20      H      -4.5792883828    -3.7282343656    -3.3578554779
   21      C      -2.7454285838    -4.9480822202    -3.0829164857
   22      H      -2.6269366146    -5.1492805471    -4.1438391438
   23      C      -1.8462388168    -5.3877924966    -2.0643618060
   24      H      -0.8887495973    -5.8269801391    -2.3284898231
   25      C      -2.1802965302    -5.3115456546    -0.7340573810
   26      H      -1.5092612510    -5.8140978112    -0.0427723574
   27      C      -3.2703175661    -4.5655220183    -0.3346629952
   28      H      -3.4195453997    -4.4482729717     0.7345557452
   29      C      -2.3040656641     0.1894799049     2.4937294762
   30      C      -1.4152280936     0.7460200412     0.2851369719
   31      C      -3.2214763391     4.8659525538    -0.0696367126
   32      C      -7.4156676130     0.6055056280     2.6050538397
   33      C      -5.9736118453     3.7641441078    -1.9839486789
   34      C      -1.9537250911    -0.1904454751     1.1652178321
   35      C      -8.0951895572     2.7023226259     0.7899300410
   36      C      -2.2372907703     3.7239327861     1.8780364161
   37      C      -4.2279812730     0.2259509643    -2.5942733335
   38      C      -7.9212954484     0.3567698436     1.3005707997
   39      C      -5.0738168046    -1.5735509837    -1.1838943091
   40      C      -5.6458932428     0.3345529921    -2.5904990035
   41      C      -7.8206412469     0.9712899385    -0.9486579091
   42      C      -7.6036991964     3.6915362171    -0.1142135849
   43      C      -2.8053612581    -0.6701087980    -0.7945221853
   44      C      -5.5415889274     5.0723561229    -0.0063821131
   45      C      -5.0845371932    -2.0545248484     0.2513722915
   46      C      -6.2765639623    -1.5185741372     1.0988450149
   47      C      -5.1809024162     4.5944351186    -1.2532492890
   48      C      -5.2287965583     3.2633236513     3.6256900847
   49      C      -4.4290343713     4.7341315501     2.0942017338
   50      C      -3.3184811703     4.0895324945     2.6832973503
   51      C      -1.6036522713     2.4680428417     1.9593241788
   52      C      -5.7003743626    -1.0735831682     2.3216338694
   53      C      -3.9085513595    -0.8484325660    -1.7115397609
   54      C      -1.2173684151     2.0875628160     0.6627777151
   55      C      -8.2074047463     1.3843180959     0.3752086766
   56      C      -1.9574841595     0.4336665112    -0.9702221923
   57      C      -6.2112428877     1.6358411227    -2.6335684839
   58      C      -5.4954121489     0.8492563826     3.8983645225
   59      C      -2.2556553743     4.0789936474     0.5562862408
   60      C      -6.1243295317    -0.6039729275    -1.6315799164
   61      C      -3.2621426137     1.8469310214     3.6726600743
   62      C      -7.2826150782     1.9817037425    -1.8280837368
   63      C      -3.3701525544     1.3670330835    -2.6510314759
   64      C      -6.8107284104     4.1342388224     1.9013411119
   65      C      -7.6598221086     3.0332400368     2.0848392471
   66      C      -3.9550380611     2.5810478312    -2.7955933536
   67      C      -6.2871938007     0.0001365107     3.1062923926
   68      C      -7.3041400536    -0.6927818686     0.5389695772
   69      C      -6.0806653954     2.1677970829     3.7924444616
   70      C      -3.8961518468    -1.7210697799     1.0896431223
   71      C      -2.1072696971     2.7818948357    -1.4312482529
   72      C      -7.2249145039    -0.2824486266    -0.8062140321
   73      C      -5.4076916628     2.7524849640    -2.7458759219
   74      C      -4.0813247266     0.7327241052     3.8008966283
   75      C      -3.7748859901     4.4911801972    -1.3181047494
   76      C      -2.1785849333     1.5119703261     2.8695547973
   77      C      -4.3739931089     5.1360328217     0.7446566892
   78      C      -2.1963854084     1.4574124262    -1.8980220063
   79      C      -3.1515957072     3.5300894515    -2.0898558763
   80      C      -2.7266329532    -1.1500650086     0.5016081669
   81      C      -4.3095917463    -1.2530092157     2.3156332355
   82      C      -5.6238098283     4.2657767036     2.6598291245
   83      C      -1.6440111054     3.0900201771    -0.1751669453
   84      C      -7.1656259640     3.3282218468    -1.4137933290
   85      C      -7.2224345473     1.9829037415     2.9786959402
   86      C      -6.7803284635     4.5637516087     0.5603054637
   87      C      -3.5212201554    -0.3161127816     3.0672004691
   88      C      -3.8213709347     3.1648377880     3.5532011292
   89      O       0.9520562059    -3.3807303780     1.8510328890
   90      C      -0.0005404196    -3.0248551704     0.8802839484
   91      H      -0.1597213083    -1.9437241547     0.9707614122
   92      H      -0.9818392216    -3.4348099586     1.1496308116
   93      H       0.2695639370    -3.3078451166    -0.1444059203
   94      O       0.0399538416    -1.8787841062     3.3489753690
   95      C       0.9552207787    -2.5965817005     3.0204985093
   96      C       2.1488299585    -2.8044913678     3.9067894865
   97      H       1.7046501941    -2.8256451133     4.9100231861
   98      H       2.6216654994    -1.8154588430     3.9256631762
   99      C       2.8975473573    -4.1086242302     3.6349094878
  100      H       3.4410332128    -4.4236011602     4.5339387746
  101      H       2.1928038027    -4.9355519506     3.4793072142
  102      C       3.9216278828    -4.0968792313     2.4695382455
  103      H       4.4562765493    -5.0517919350     2.3869275222
  104      H       3.2760495991    -4.1336979146     1.5836612427
  105      C       5.0054584857    -2.9415054330     2.4044797304
  106      C       5.9738730368    -3.0387025761     3.5639942722
  107      C       6.9343816217    -4.0398624966     3.5842938243
  108      H       6.9205109466    -4.7710249710     2.7807951993
  109      C       7.7791536812    -4.1709378675     4.6736171990
  110      H       8.4511083149    -5.0196855123     4.5878360486
  111      C       7.6435183675    -3.3260889033     5.8109725917
  112      H       8.1914625426    -3.5245461464     6.7278144012
  113      C       6.5909571048    -2.3709252452     5.8441113064
  114      H       6.3638064749    -1.9020587966     6.7970104850
  115      C       5.7904578336    -2.2732120634     4.7317687103
  116      H       4.9822410496    -1.5485691568     4.6941616911
  117      C       6.1533613799     2.3436540572     1.9143837098
  118      C       7.9878771509     1.2309262991     0.8748247542
  119      C       7.0572645833     2.3584457057    -3.3925797540
  120      C       1.7875599260     0.6792917557    -0.2271932314
  121      C       5.7273762471    -0.7650858941    -4.1579406871
  122      C       7.0574866803     1.2330664906     1.8712363117
  123      C       2.3616315503     0.0393663246    -2.9420520146
  124      C       6.8993544017     3.7305407702    -1.3750145112
  125      C       6.9883119984    -2.2618803919    -0.6572365776
  126      C       2.0184739117    -0.6548881705    -0.5935232132
  127      C       5.4272255239    -2.5025373264     1.0772787031
  128      C       5.8341316419    -2.8302836046    -1.2632782367
  129      C       3.2092782507    -2.0707777208    -1.9701378317
  130      C       3.4021396758     0.0214346478    -3.8841153330
  131      C       7.3481652521    -0.9285046250     1.2901087179
  132      C       5.1463245254     1.6220662939    -4.3799031341
  133      C       4.6337517209    -1.5712145317     1.9668281261
  134      C       3.2742526254    -1.0392348750     1.4064346446
  135      C       6.1524315166     0.5821701552    -4.3383129563
  136      C       3.4224503336     3.6144553148    -1.3715119095
  137      C       4.9772309803     3.5709622467    -2.8977364977
  138      C       5.5750006068     4.1347351667    -1.7261838662
  139      C       7.2328312697     3.4209538931    -0.0278600494
  140      C       3.1313642338     0.2838686331     1.7644095243
  141      C       6.8153219771    -2.0887317316     0.6961380911
  142      C       8.0720952093     2.3241575675    -0.0441038134
  143      C       2.3447804344    -0.9498827375    -1.9476887344
  144      C       8.2341143541    -0.0953444012     0.5471812449
  145      C       5.5975648312    -2.4539247471    -2.5952358765
  146      C       2.8518050020     2.4731794005     0.7027721099
  147      C       7.6021079535     2.8337326310    -2.2157318281
  148      C       4.8248371615    -2.8805592291    -0.2929576641
  149      C       4.9137623353     3.7947534123     0.5923860282
  150      C       4.2594089993    -2.0720556092    -2.9335566284
  151      C       7.9350314405    -1.4805279470    -1.3563357514
  152      C       3.0450727128     2.1532252957    -3.2938934957
  153      C       2.1520716540     1.3749764079    -2.5508431760
  154      C       7.6601127361    -1.1025856696    -2.7159994381
  155      C       2.3853374874     1.1654047142     0.9807315091
  156      C       2.8202974755    -1.4913851454     0.1683329304
  157      C       2.5939117030     2.7722984959    -0.6296327884
  158      C       5.2431042651    -0.3137526562     2.4488624699
  159      C       8.6946958894     0.6800449269    -1.7456181443
  160      C       3.5506345159    -2.4188717854    -0.6470273214
  161      C       6.4478732093    -1.5691320133    -3.3426156196
  162      C       4.0787252132     2.8975729407     1.3065493191
  163      C       7.3404091751     1.0786612523    -3.8044958776
  164      C       6.2242009147     3.4692687751     0.9664494995
  165      C       5.7618533697     2.6814168349    -3.6690222206
  166      C       8.5649589318    -0.3661487265    -0.7851384926
  167      C       8.1431456394     0.2063457785    -2.9752438754
  168      C       6.6099459614    -0.0735512887     2.1894379520
  169      C       4.3086274383     0.7453094043     2.3804620888
  170      C       3.6175169651     3.2724896802    -2.6789034018
  171      C       8.3698178873     2.0195095453    -1.4022410634
  172      C       4.3877416501    -1.0005404785    -3.9049381474
  173      C       1.9077057217     1.7172619655    -1.1882930345
  174      C       3.7933812953     1.3394149725    -4.1530797521
  175      C       4.8081187098     2.0226266198     2.1052908685
  176      C       4.5808711481     4.1040148197    -0.7466105511
 ----------------------------------------------------------------

    9   -5804.2962029264      9.33E-06 Convergence criterion met
 Total energy in the final basis set = -5804.2962029264

                    Orbital Energies (a.u.)
 --------------------------------------------------------------

 Alpha MOs
 -- Occupied --
-19.200 -19.191 -19.143 -19.137 -10.323 -10.320 -10.246 -10.245
-10.240 -10.238 -10.237 -10.237 -10.234 -10.233 -10.232 -10.231
-10.230 -10.230 -10.229 -10.226 -10.225 -10.225 -10.224 -10.224
-10.224 -10.224 -10.223 -10.223 -10.223 -10.223 -10.222 -10.222
-10.222 -10.222 -10.222 -10.221 -10.221 -10.221 -10.220 -10.220
-10.220 -10.220 -10.219 -10.219 -10.219 -10.218 -10.218 -10.218
-10.218 -10.218 -10.218 -10.218 -10.217 -10.217 -10.217 -10.217
-10.217 -10.217 -10.217 -10.217 -10.217 -10.217 -10.216 -10.216
-10.216 -10.216 -10.216 -10.215 -10.215 -10.215 -10.215 -10.215
-10.215 -10.215 -10.215 -10.215 -10.214 -10.214 -10.214 -10.214
-10.214 -10.214 -10.214 -10.214 -10.214 -10.214 -10.214 -10.213
-10.213 -10.213 -10.213 -10.213 -10.213 -10.213 -10.213 -10.213
-10.213 -10.212 -10.212 -10.212 -10.212 -10.212 -10.212 -10.211
-10.211 -10.211 -10.211 -10.211 -10.211 -10.211 -10.210 -10.210
-10.210 -10.210 -10.210 -10.210 -10.210 -10.210 -10.210 -10.210
-10.209 -10.209 -10.209 -10.209 -10.209 -10.208 -10.208 -10.208
-10.208 -10.207 -10.207 -10.207 -10.207 -10.206 -10.204 -10.204
-10.202 -10.202 -10.202 -10.202 -10.201 -10.201 -10.200 -10.200
-10.199 -10.198 -10.198 -10.197  -1.102  -1.094  -1.020  -1.008
 -0.981  -0.979  -0.966  -0.961  -0.960  -0.960  -0.958  -0.957
 -0.934  -0.930  -0.927  -0.924  -0.923  -0.922  -0.922  -0.919
 -0.919  -0.916  -0.898  -0.895  -0.889  -0.886  -0.885  -0.881
 -0.877  -0.875  -0.858  -0.855  -0.843  -0.839  -0.837  -0.836
 -0.833  -0.831  -0.827  -0.818  -0.812  -0.809  -0.800  -0.796
 -0.794  -0.794  -0.792  -0.792  -0.790  -0.787  -0.782  -0.778
 -0.771  -0.769  -0.768  -0.768  -0.767  -0.765  -0.763  -0.761
 -0.755  -0.755  -0.744  -0.739  -0.731  -0.729  -0.718  -0.715
 -0.714  -0.713  -0.711  -0.711  -0.709  -0.709  -0.709  -0.708
 -0.707  -0.706  -0.704  -0.703  -0.703  -0.700  -0.674  -0.668
 -0.658  -0.657  -0.654  -0.653  -0.648  -0.647  -0.632  -0.631
 -0.630  -0.627  -0.627  -0.623  -0.622  -0.622  -0.618  -0.618
 -0.618  -0.615  -0.614  -0.612  -0.611  -0.610  -0.609  -0.608
 -0.608  -0.602  -0.601  -0.599  -0.571  -0.569  -0.565  -0.563
 -0.563  -0.558  -0.558  -0.557  -0.555  -0.553  -0.553  -0.552
 -0.539  -0.537  -0.536  -0.529  -0.527  -0.527  -0.525  -0.523
 -0.522  -0.521  -0.521  -0.516  -0.515  -0.513  -0.513  -0.512
 -0.509  -0.507  -0.506  -0.501  -0.494  -0.493  -0.488  -0.487
 -0.484  -0.483  -0.482  -0.480  -0.480  -0.478  -0.476  -0.474
 -0.474  -0.472  -0.471  -0.469  -0.468  -0.468  -0.466  -0.464
 -0.464  -0.463  -0.463  -0.462  -0.461  -0.459  -0.459  -0.457
 -0.454  -0.453  -0.451  -0.451  -0.448  -0.445  -0.445  -0.444
 -0.443  -0.440  -0.440  -0.438  -0.438  -0.436  -0.435  -0.435
 -0.434  -0.433  -0.430  -0.429  -0.428  -0.428  -0.427  -0.426
 -0.425  -0.422  -0.422  -0.421  -0.420  -0.419  -0.418  -0.417
 -0.417  -0.416  -0.415  -0.414  -0.413  -0.413  -0.413  -0.412
 -0.411  -0.410  -0.409  -0.407  -0.402  -0.397  -0.397  -0.395
 -0.393  -0.392  -0.392  -0.389  -0.389  -0.388  -0.384  -0.382
 -0.382  -0.379  -0.378  -0.377  -0.370  -0.369  -0.368  -0.367
 -0.366  -0.365  -0.363  -0.362  -0.361  -0.360  -0.359  -0.359
 -0.358  -0.357  -0.356  -0.355  -0.354  -0.353  -0.353  -0.350
 -0.349  -0.348  -0.347  -0.346  -0.345  -0.344  -0.344  -0.343
 -0.342  -0.341  -0.340  -0.339  -0.339  -0.335  -0.334  -0.334
 -0.333  -0.330  -0.329  -0.327  -0.326  -0.324  -0.323  -0.321
 -0.317  -0.308  -0.301  -0.297  -0.284  -0.284  -0.276  -0.273
 -0.271  -0.269  -0.269  -0.267  -0.266  -0.264  -0.264  -0.263
 -0.262  -0.261  -0.260  -0.259  -0.258  -0.256  -0.255  -0.254
 -0.251  -0.248  -0.245  -0.242  -0.223  -0.217  -0.215  -0.212
 -0.210  -0.207  -0.206  -0.204  -0.199  -0.194

          Ground-State Mulliken Net Atomic Charges

     Atom                 Charge (a.u.)
  ----------------------------------------
      1 O                    -0.454437
      2 C                    -0.091811
      3 H                     0.122420
      4 H                     0.118844
      5 H                     0.142654
      6 O                    -0.483389
      7 C                     0.595684
      8 C                    -0.233797
      9 H                     0.125922
     10 H                     0.134564
     11 C                    -0.189438
     12 H                     0.110870
     13 H                     0.118815
     14 C                    -0.184026
     15 H                     0.112514
     16 H                     0.106261
     17 C                     0.008567
     18 C                     0.090876
     19 C                    -0.103932
     20 H                     0.095808
     21 C                    -0.098414
     22 H                     0.097231
     23 C                    -0.089617
     24 H                     0.089231
     25 C                    -0.082954
     26 H                     0.095674
     27 C                    -0.109185
     28 H                     0.095943
     29 C                     0.023351
     30 C                     0.023512
     31 C                    -0.034129
     32 C                    -0.007523
     33 C                     0.009723
     34 C                    -0.026789
     35 C                     0.010622
     36 C                     0.009980
     37 C                    -0.005709
     38 C                    -0.008563
     39 C                    -0.078674
     40 C                    -0.002464
     41 C                    -0.027657
     42 C                    -0.006120
     43 C                     0.027034
     44 C                    -0.003397
     45 C                    -0.084579
     46 C                     0.010769
     47 C                     0.031831
     48 C                    -0.005265
     49 C                     0.008628
     50 C                    -0.012566
     51 C                    -0.012659
     52 C                    -0.005887
     53 C                     0.017020
     54 C                    -0.016858
     55 C                     0.007017
     56 C                    -0.010700
     57 C                    -0.003002
     58 C                    -0.033723
     59 C                     0.033045
     60 C                     0.033268
     61 C                     0.009098
     62 C                    -0.011992
     63 C                     0.032180
     64 C                    -0.000932
     65 C                    -0.016413
     66 C                    -0.009125
     67 C                     0.033031
     68 C                    -0.010704
     69 C                    -0.003601
     70 C                     0.022592
     71 C                     0.005441
     72 C                     0.007912
     73 C                     0.000565
     74 C                     0.018547
     75 C                     0.017910
     76 C                    -0.004559
     77 C                    -0.015561
     78 C                    -0.026359
     79 C                    -0.044586
     80 C                    -0.006364
     81 C                     0.011024
     82 C                    -0.003676
     83 C                     0.026595
     84 C                    -0.007477
     85 C                    -0.006392
     86 C                     0.002372
     87 C                    -0.015477
     88 C                     0.008900
     89 O                    -0.485990
     90 C                    -0.086715
     91 H                     0.126510
     92 H                     0.112632
     93 H                     0.120614
     94 O                    -0.460263
     95 C                     0.611925
     96 C                    -0.266125
     97 H                     0.142311
     98 H                     0.145785
     99 C                    -0.190504
    100 H                     0.106302
    101 H                     0.117004
    102 C                    -0.187484
    103 H                     0.099247
    104 H                     0.125681
    105 C                     0.007600
    106 C                     0.102762
    107 C                    -0.105782
    108 H                     0.089582
    109 C                    -0.088243
    110 H                     0.090373
    111 C                    -0.098412
    112 H                     0.092851
    113 C                    -0.089605
    114 H                     0.098761
    115 C                    -0.103354
    116 H                     0.082504
    117 C                    -0.023051
    118 C                     0.036260
    119 C                     0.023509
    120 C                    -0.027244
    121 C                     0.008610
    122 C                    -0.027586
    123 C                     0.000417
    124 C                    -0.001637
    125 C                     0.027523
    126 C                     0.002523
    127 C                    -0.093563
    128 C                     0.008905
    129 C                    -0.028690
    130 C                     0.001100
    131 C                    -0.000073
    132 C                    -0.021922
    133 C                    -0.083065
    134 C                    -0.002178
    135 C                    -0.012365
    136 C                     0.011576
    137 C                    -0.014561
    138 C                    -0.030224
    139 C                    -0.008975
    140 C                     0.034517
    141 C                     0.024693
    142 C                     0.018564
    143 C                     0.001203
    144 C                    -0.015725
    145 C                    -0.021104
    146 C                    -0.010389
    147 C                     0.013232
    148 C                     0.024798
    149 C                     0.012411
    150 C                    -0.019939
    151 C                     0.000354
    152 C                     0.023704
    153 C                    -0.025111
    154 C                    -0.015099
    155 C                    -0.020085
    156 C                     0.018155
    157 C                     0.017987
    158 C                     0.015576
    159 C                    -0.003870
    160 C                     0.019242
    161 C                     0.013919
    162 C                    -0.021445
    163 C                     0.001753
    164 C                    -0.025349
    165 C                     0.018239
    166 C                    -0.010933
    167 C                    -0.017209
    168 C                     0.013025
    169 C                     0.000233
    170 C                     0.008481
    171 C                    -0.009102
    172 C                     0.003656
    173 C                     0.015892
    174 C                    -0.006832
    175 C                     0.037022
    176 C                     0.016916
  ----------------------------------------
  Sum of atomic charges =     0.000000

                    Cartesian Multipole Moments
 -----------------------------------------------------------------
    Charge (ESU x 10^10)
                 0.0000
    Dipole Moment (Debye)
         X       2.9160      Y      -5.7687      Z       1.6636
       Tot       6.6745
    Quadrupole Moments (Debye-Ang)
        XX    -838.1330     XY      -2.2503     YY    -778.9356
        XZ       8.3284     YZ      -4.4289     ZZ    -798.1496

 Total job time:  867.67s(wall), 7396.47s(cpu)
        *  Thank you very much for using Q-Chem.  Have a nice day.  *
