 Q-Chem 4.4, Q-Chem, Inc., Pleasanton, CA (2016)
 Q-Chem 4.4.2 for Intel X86 Linux

User input:
--------------------------------------------------------------
$comment
SP
$end

$rem
MEM_STATIC 5000
MEM_TOTAL 20000
JOBTYPE SP
EXCHANGE B3LYP
BASIS 6-31g(d,p)
$end

$molecule
0 1
O          16.333000     12.201000      7.616000
C          15.028000     11.494000      7.621000
H          14.590000     11.697000      8.605000
H          15.158000     10.406000      7.562000
H          14.369000     11.819000      6.806000
O          16.898000     11.091000      9.550000
C          17.122000     11.886000      8.628000
C          18.388000     12.846000      8.563000
H          18.651000     13.067000      9.605000
H          18.105000     13.809000      8.119000
C          19.582000     12.285000      7.763000
H          20.126000     11.486000      8.283000
H          19.144000     11.976000      6.806000
C          20.621000     13.362000      7.465000
H          21.344000     12.941000      6.754000
H          20.166000     14.131000      6.829000
C          21.468000     13.746000      8.716000
C          22.121000     12.560000      9.289000
C          21.568000     11.865000     10.411000
H          20.602000     12.144000     10.821000
C          22.206000     10.753000     10.929000
H          21.814000     10.281000     11.825000
C          23.447000     10.285000     10.437000
H          23.992000      9.442000     10.851000
C          24.053000     10.985000      9.366000
H          25.033000     10.652000      9.040000
C          23.412000     12.118000      8.773000
H          23.919000     12.688000      8.001000
C          22.136000     17.151000     12.934000
C          24.394000     16.853000     12.196000
C          24.876000     20.994000     10.313000
C          19.009000     18.615000      9.170000
C          24.121000     19.873000      7.065000
C          23.122000     16.304000     12.420000
C          20.556000     20.144000      7.486000
C          23.818000     20.335000     12.508000
C          24.394000     16.076000      8.181000
C          19.478000     18.062000      7.976000
C          22.268000     14.981000      8.590000
C          23.492000     16.472000      7.220000
C          21.192000     17.968000      6.498000
C          21.799000     20.672000      7.124000
C          23.857000     15.494000     10.456000
C          23.492000     21.655000      8.585000
C          21.120000     14.971000      9.519000
C          20.022000     15.958000      9.208000
C          24.444000     20.785000      8.086000
C          20.529000     21.011000     11.360000
C          22.685000     21.777000     10.919000
C          22.703000     21.094000     12.176000
C          23.683000     19.056000     13.078000
C          19.606000     16.613000     10.416000
C          23.637000     15.259000      9.059000
C          24.672000     18.239000     12.457000
C          20.211000     18.828000      7.101000
C          24.860000     16.285000     10.960000
C          23.652000     17.753000      6.627000
C          19.423000     18.797000     11.532000
C          24.935000     20.274000     11.558000
C          22.178000     15.968000      7.425000
C          21.277000     19.283000     12.960000
C          22.494000     18.498000      6.263000
C          25.389000     16.911000      8.654000
C          21.086000     21.645000      9.049000
C          20.041000     20.742000      8.603000
C          25.490000     18.222000      8.115000
C          19.121000     17.926000     10.393000
C          19.918000     16.716000      7.962000
C          19.575000     20.093000     10.881000
C          21.431000     15.360000     10.894000
C          25.901000     18.408000     10.342000
C          21.005000     16.687000      7.076000
C          24.639000     18.586000      7.117000
C          20.372000     18.362000     12.459000
C          25.301000     20.419000      9.105000
C          22.370000     18.554000     13.347000
C          23.729000     21.739000      9.941000
C          25.576000     17.056000     10.034000
C          25.790000     19.126000      9.142000
C          22.767000     15.493000     11.304000
C          20.485000     16.180000     11.429000
C          21.308000     21.730000     10.444000
C          25.471000     18.959000     11.605000
C          22.811000     19.828000      6.547000
C          19.375000     19.964000      9.498000
C          22.134000     21.594000      8.105000
C          20.814000     17.055000     12.441000
C          21.393000     20.549000     12.361000
O          30.957000     30.820000     20.431000
C          31.956000     30.593000     21.467000
H          32.146000     31.580000     21.908000
H          32.842000     30.125000     21.021000
H          31.548000     29.964000     22.268000
O          30.245000     28.656000     20.327000
C          30.345000     29.802000     19.848000
C          29.741000     30.290000     18.535000
H          30.125000     31.256000     18.185000
H          28.716000     30.516000     18.852000
C          29.764000     29.097000     17.505000
H          30.777000     28.679000     17.471000
H          29.116000     28.260000     17.793000
C          29.269000     29.670000     16.115000
H          28.178000     29.781000     16.106000
H          29.770000     30.640000     16.007000
C          29.567000     28.630000     14.897000
C          30.978000     28.238000     14.784000
C          31.932000     29.059000     14.166000
H          31.726000     30.010000     13.684000
C          33.318000     28.671000     14.082000
H          33.968000     29.349000     13.537000
C          33.768000     27.523000     14.765000
H          34.840000     27.351000     14.774000
C          32.762000     26.661000     15.302000
H          33.018000     25.700000     15.738000
C          31.417000     27.028000     15.325000
H          30.707000     26.414000     15.871000
C          29.256000     28.182000      9.406000
C          29.255000     25.952000     10.235000
C          25.036000     24.884000      9.184000
C          25.487000     30.815000     11.733000
C          23.960000     25.330000     12.505000
C          29.724000     27.245000     10.339000
C          23.501000     28.918000     12.186000
C          26.645000     26.176000      7.890000
C          27.750000     25.546000     13.832000
C          25.376000     30.135000     12.964000
C          28.520000     27.716000     14.396000
C          26.650000     26.248000     14.462000
C          24.783000     28.324000     14.215000
C          23.028000     27.592000     12.065000
C          29.460000     26.395000     12.418000
C          23.380000     26.085000     10.290000
C          28.878000     28.945000     13.563000
C          27.773000     29.932000     13.299000
C          23.811000     25.071000     11.108000
C          25.115000     29.271000      8.678000
C          24.445000     27.146000      8.367000
C          25.743000     27.232000      7.830000
C          28.020000     26.472000      8.208000
C          27.936000     30.421000     11.993000
C          28.833000     26.439000     13.637000
C          28.519000     25.491000      9.136000
C          24.351000     29.252000     13.266000
C          29.144000     25.432000     11.493000
C          25.316000     25.926000     14.146000
C          26.722000     30.533000      9.865000
C          26.325000     25.004000      8.644000
C          27.032000     27.588000     14.758000
C          27.443000     28.902000      8.222000
C          24.366000     26.953000     14.064000
C          27.437000     24.496000     12.881000
C          23.296000     28.473000     10.018000
C          23.601000     29.534000     10.931000
C          26.099000     24.205000     12.578000
C          26.811000     30.849000     11.239000
C          26.466000     29.732000     13.724000
C          25.429000     30.274000      9.575000
C          29.539000     28.817000     12.195000
C          27.291000     24.029000     10.613000
C          26.127000     28.646000     14.454000
C          25.050000     24.962000     13.194000
C          27.700000     29.830000      9.238000
C          24.872000     24.360000     10.491000
C          28.357000     27.834000      8.363000
C          24.120000     25.941000      9.110000
C          28.162000     24.446000     11.692000
C          26.002000     23.995000     11.208000
C          29.879000     27.571000     11.664000
C          28.985000     29.719000     11.349000
C          24.079000     28.375000      8.859000
C          27.494000     24.611000      9.365000
C          23.472000     26.602000     12.981000
C          24.643000     30.387000     10.681000
C          22.948000     27.304000     10.741000
C          28.815000     29.372000      9.943000
C          26.147000     28.555000      7.976000
$end

--------------------------------------------------------------

             Standard Nuclear Orientation (Angstroms)
    I     Atom           X                Y                Z
 ----------------------------------------------------------------
    1      O     -13.4213569525    -1.1427925723    -2.0386705156
    2      C     -14.6226706764    -1.3546290772    -2.8841701501
    3      H     -14.3795879598    -0.9058116376    -3.8541096837
    4      H     -15.4895087922    -0.8024849672    -2.4996528386
    5      H     -14.8892841812    -2.4147253833    -2.9803161898
    6      O     -13.5397876486     1.1073716197    -2.5017215701
    7      C     -13.0298553074     0.1168728584    -1.9621233760
    8      C     -11.6519084714     0.1410887895    -1.1688660999
    9      H     -11.0492935824     0.9288964838    -1.6378952381
   10      H     -11.1034939296    -0.7935637414    -1.3428205099
   11      C     -11.7889419961     0.3364989918     0.3554021396
   12      H     -12.0564091529     1.3601860324     0.6474007062
   13      H     -12.5231191389    -0.4197000551     0.6592457251
   14      C     -10.4851138575     0.0289319199     1.0859421326
   15      H     -10.7001985962     0.0172815604     2.1625543304
   16      H     -10.2338973115    -1.0284303813     0.9384388755
   17      C      -9.4136369666     1.1464774249     0.9045714715
   18      C      -9.9391563148     2.4494265350     1.3375691980
   19      C     -10.4628064398     3.3978111597     0.4026493350
   20      H     -10.5654119753     3.1481753068    -0.6491353602
   21      C     -10.9489278513     4.6161695403     0.8399145057
   22      H     -11.2743779956     5.3538585218     0.1124798556
   23      C     -10.8990497258     5.0173619642     2.1955419662
   24      H     -11.2328479487     5.9836374603     2.5615479934
   25      C     -10.3319956679     4.1278438539     3.1397263904
   26      H     -10.2443138911     4.4735097039     4.1646127383
   27      C      -9.8508905245     2.8413772364     2.7400258989
   28      H      -9.3545188600     2.1981856808     3.4596457941
   29      C      -5.0578756402     2.9172175857    -1.8745642844
   30      C      -4.4592187116     3.4906001437     0.3715110313
   31      C      -1.2984607186     0.2287792471     0.9155949846
   32      C      -6.3592347934    -1.9966165730    -2.3743834664
   33      C      -3.5083646787    -1.9842560415     2.5264858246
   34      C      -5.4508995727     3.3792968925    -0.6152724586
   35      C      -4.8308951925    -3.3499478840    -0.5305888935
   36      C      -1.7250640726     1.7466967325    -1.0555990916
   37      C      -6.2445079475     0.8579774727     2.9417239051
   38      C      -6.9402202063    -2.4161123654    -1.1752649442
   39      C      -8.0407551126     0.7860283882     1.3124598224
   40      C      -6.6066575459    -0.4526114168     2.7292493632
   41      C      -6.6344763725    -2.7364576500     1.0462245577
   42      C      -3.9093706947    -3.3445529962     0.5209055170
   43      C      -6.3401999828     2.6239946023     1.3062592822
   44      C      -1.8810613738    -1.9991982537     0.7283685636
   45      C      -8.3238461295     0.9909977844    -0.1224241529
   46      C      -8.0991693570    -0.2093975993    -1.0084632438
   47      C      -2.3050165098    -1.5291861556     1.9578219667
   48      C      -3.0227316429    -0.8797187660    -3.0581977799
   49      C      -1.4969663228    -0.6554931494    -1.3113903890
   50      C      -1.7051871437     0.6363088788    -1.8899693463
   51      C      -2.6980869740     2.7514617317    -1.2060641367
   52      C      -7.4040166617     0.1930007977    -2.1984982266
   53      C      -7.0347409530     1.5949294715     2.0231078000
   54      C      -3.0948269073     3.1195138774     0.1124145485
   55      C      -6.2030747078    -3.1359127650    -0.2652243414
   56      C      -5.0660376779     3.0456738170     1.5967813304
   57      C      -5.6267600758    -1.4648064404     2.9122034071
   58      C      -5.3455578927    -0.1315758214    -3.5047135667
   59      C      -1.5218656849     1.5477254427     0.3842032702
   60      C      -7.5856847098    -0.6187685112     1.7111459144
   61      C      -3.6673746214     1.5055661697    -3.0397802284
   62      C      -5.6477732980    -2.6109687094     2.0670078689
   63      C      -4.9460085811     1.2310384456     3.2344761997
   64      C      -2.8843130180    -2.6899284092    -1.3978040519
   65      C      -4.2555196476    -3.0306444287    -1.7295493957
   66      C      -3.9533424764     0.2189334772     3.3329675071
   67      C      -6.5380962653    -0.6865881013    -2.8589739915
   68      C      -7.8652889007    -1.5674937096    -0.5198213633
   69      C      -4.3732361935    -1.1982915458    -3.2967975340
   70      C      -7.4639872654     1.9665872942    -0.7914046029
   71      C      -2.9758730695     1.9791989481     2.2798459422
   72      C      -7.6312490721    -1.7472604340     0.8514245240
   73      C      -4.3288749362    -1.0814458324     3.1891272387
   74      C      -5.0036765606     1.1932160740    -3.2268672266
   75      C      -1.9224158073    -0.2094223977     2.0942269737
   76      C      -3.6568842576     2.6328585403    -2.2619879274
   77      C      -1.3165868323    -0.9186216905     0.0836331270
   78      C      -4.3470748690     2.2776716801     2.5229768806
   79      C      -2.7657612164     0.6725000289     2.7448577095
   80      C      -6.6115027116     2.7887835242    -0.0377810596
   81      C      -7.0689160474     1.5510622550    -2.0262319894
   82      C      -2.3149992634    -1.5870415563    -2.0775513862
   83      C      -2.3588099444     2.4684897852     1.0700949031
   84      C      -4.3055192617    -2.9200363014     1.8370593411
   85      C      -4.9657046416    -2.2607657863    -2.5971836216
   86      C      -2.7033378361    -2.9193077186    -0.0169803427
   87      C      -5.8962842272     2.0203371345    -2.5764371344
   88      C      -2.7223246826     0.4772047012    -2.8836831318
   89      O      12.6344399153     5.5975685323    -2.6834524639
   90      C      13.2046886859     6.9227614269    -2.4797219267
   91      H      14.2446760848     6.8468440602    -2.8223773857
   92      H      13.1014265825     7.2044196100    -1.4247614507
   93      H      12.7134430453     7.6600189735    -3.1268965790
   94      O      10.4598709238     6.2844532553    -2.6737016448
   95      C      11.3308680229     5.3989223450    -2.5739215846
   96      C      11.0857364071     3.9074174392    -2.3683671960
   97      H      11.9753853529     3.3315038407    -2.0855947073
   98      H      10.8848578234     3.5885626928    -3.3980124967
   99      C       9.8064862367     3.7352724608    -1.4636224210
  100      H       9.9209628865     4.3569702407    -0.5678345180
  101      H       8.8837772297     4.0859344754    -1.9422258477
  102      C       9.6617777394     2.1910097247    -1.1477647749
  103      H       9.2415874076     1.6555130487    -2.0076289473
  104      H      10.6779244801     1.8458290044    -0.9200345140
  105      C       8.5862065904     1.9209730052     0.0456148268
  106      C       8.8863916075     2.6431585881     1.2888730217
  107      C       9.8456495413     2.1852012873     2.2033019840
  108      H      10.4093130393     1.2613662849     2.1140083703
  109      C      10.1456795879     2.9163491655     3.4091215192
  110      H      10.8635591566     2.4522779081     4.0788198041
  111      C       9.5880615928     4.1950014558     3.6116147090
  112      H       9.9482833848     4.7525288904     4.4708308752
  113      C       8.5472458161     4.5898432946     2.7148140393
  114      H       7.9856089763     5.5057675667     2.8722935241
  115      C       8.2315807007     3.8410613455     1.5817102808
  116      H       7.5394921486     4.2480684209     0.8505668772
  117      C       6.5137102870    -2.1195675375     3.1804668481
  118      C       4.8803050764    -0.3898668045     3.1967392836
  119      C       1.7145238615    -2.4814134159     0.8200928918
  120      C       7.6121178243    -3.3134191787    -1.7104633437
  121      C       2.5229573875    -0.6733300821    -2.0890311847
  122      C       6.2118440999    -0.7498975253     3.1995158038
  123      C       5.2222952103    -2.8934164209    -3.0744133270
  124      C       3.1836538240    -3.3970010460     2.5335506371
  125      C       4.8525707054     1.8623769799    -0.0118271782
  126      C       7.3386888654    -2.0986544057    -2.3735358514
  127      C       7.1893097180     1.5435022000    -0.2523800036
  128      C       5.1036142280     1.5099862381    -1.3947595391
  129      C       5.8983267240    -0.5166980700    -3.1603916537
  130      C       3.8564482009    -2.5315215642    -3.0625786495
  131      C       5.9641224818     1.1203214788     1.9523783308
  132      C       2.2577052007    -2.9650354188    -1.3887612888
  133      C       8.1505036454     0.4626540911     0.2378929811
  134      C       8.3851872255    -0.7054475391    -0.6815373853
  135      C       1.8415488250    -1.6596590702    -1.3120315075
  136      C       5.2818163237    -5.0051257204     0.1771724509
  137      C       3.1010579473    -4.4749804570     0.3336489778
  138      C       3.6287698019    -4.3578663777     1.6330232468
  139      C       4.1648731702    -2.7079455519     3.3346599434
  140      C       8.5018281549    -1.8592110194     0.1100121868
  141      C       6.0520331780     1.7426765143     0.7333738520
  142      C       3.8392598776    -1.3067356754     3.3906319536
  143      C       6.2049832657    -1.8783002209    -3.1401346034
  144      C       4.7484778627     0.7657746609     2.4809185036
  145      C       4.1203778393     0.8531393497    -2.1595434101
  146      C       7.4260538123    -4.0415776943     0.4177608832
  147      C       2.2656447440    -2.3873386722     2.1065363284
  148      C       6.4880529002     1.2331942100    -1.5841156481
  149      C       5.9334805186    -4.1541154316     2.3253801377
  150      C       4.5125299919    -0.1307077505    -3.0772659022
  151      C       3.5581353140     1.5327718769     0.5544479257
  152      C       4.1410423618    -4.3913355689    -1.8385312519
  153      C       5.4302049647    -4.0992304797    -2.3908440256
  154      C       2.6026578092     0.8685735620    -0.2282636025
  155      C       8.1206094371    -3.1268804298    -0.4047805434
  156      C       7.7261562179    -0.8540783915    -1.8949874258
  157      C       6.5221045710    -4.6923515870    -0.3453898947
  158      C       7.9660607617    -0.2152567080     1.5910916994
  159      C       2.4578121874    -0.0037892505     1.9003669125
  160      C       6.8644819154     0.0866046951    -2.3420329794
  161      C       2.9196654072     0.5004977915    -1.5761999548
  162      C       7.1179246607    -3.7393988054     1.7052259681
  163      C       1.5683913460    -1.3099590079     0.0351974479
  164      C       5.5068243779    -3.1211915879     3.1896334980
  165      C       2.1499685588    -3.4593775242    -0.0830987371
  166      C       3.5195432107     0.9784923291     1.8323879996
  167      C       1.9942445413    -0.0992059551     0.5614484348
  168      C       6.9318129620     0.1516521697     2.4546809329
  169      C       8.2229599867    -1.5394853775     1.4620288504
  170      C       4.0978813650    -4.8740567579    -0.5228217923
  171      C       2.6874354807    -1.1427489913     2.6668399074
  172      C       3.4941676046    -1.1587423604    -3.0397307346
  173      C       6.5614428684    -4.2582216714    -1.6352676853
  174      C       3.2036802011    -3.4186224034    -2.2693157426
  175      C       7.4554957256    -2.4980154293     2.2483899302
  176      C       4.9668780952    -4.7294329063     1.5538682723
 ----------------------------------------------------------------

    9   -5804.2701026856      9.06E-06 Convergence criterion met
 Total energy in the final basis set = -5804.2701026856

                    Orbital Energies (a.u.)
 --------------------------------------------------------------

 Alpha MOs
 -- Occupied --
-19.206 -19.195 -19.133 -19.130 -10.317 -10.316 -10.252 -10.251
-10.243 -10.239 -10.238 -10.238 -10.236 -10.234 -10.233 -10.230
-10.227 -10.226 -10.225 -10.224 -10.224 -10.223 -10.223 -10.222
-10.221 -10.220 -10.220 -10.220 -10.219 -10.219 -10.219 -10.219
-10.219 -10.219 -10.219 -10.218 -10.218 -10.218 -10.218 -10.218
-10.217 -10.217 -10.217 -10.217 -10.216 -10.216 -10.216 -10.216
-10.216 -10.216 -10.216 -10.216 -10.215 -10.215 -10.215 -10.215
-10.215 -10.215 -10.215 -10.214 -10.214 -10.214 -10.214 -10.214
-10.214 -10.213 -10.213 -10.213 -10.213 -10.213 -10.213 -10.213
-10.212 -10.212 -10.212 -10.211 -10.211 -10.211 -10.211 -10.211
-10.211 -10.211 -10.211 -10.211 -10.211 -10.211 -10.211 -10.210
-10.210 -10.210 -10.210 -10.210 -10.210 -10.210 -10.210 -10.210
-10.210 -10.210 -10.209 -10.209 -10.209 -10.209 -10.209 -10.209
-10.209 -10.209 -10.209 -10.209 -10.209 -10.208 -10.208 -10.208
-10.208 -10.208 -10.207 -10.207 -10.207 -10.206 -10.206 -10.206
-10.206 -10.206 -10.205 -10.205 -10.205 -10.205 -10.205 -10.205
-10.205 -10.204 -10.204 -10.204 -10.203 -10.203 -10.202 -10.202
-10.202 -10.202 -10.201 -10.201 -10.200 -10.200 -10.200 -10.199
-10.199 -10.198 -10.196 -10.193  -1.102  -1.099  -1.002  -0.997
 -0.982  -0.981  -0.966  -0.964  -0.961  -0.960  -0.960  -0.957
 -0.934  -0.931  -0.926  -0.925  -0.924  -0.922  -0.922  -0.918
 -0.918  -0.916  -0.896  -0.895  -0.888  -0.887  -0.883  -0.880
 -0.875  -0.868  -0.849  -0.848  -0.843  -0.839  -0.839  -0.837
 -0.835  -0.830  -0.818  -0.815  -0.802  -0.799  -0.799  -0.796
 -0.795  -0.793  -0.792  -0.790  -0.789  -0.789  -0.781  -0.780
 -0.771  -0.771  -0.765  -0.765  -0.765  -0.763  -0.761  -0.760
 -0.749  -0.747  -0.745  -0.741  -0.731  -0.729  -0.715  -0.713
 -0.713  -0.712  -0.711  -0.710  -0.709  -0.708  -0.708  -0.707
 -0.704  -0.704  -0.703  -0.701  -0.699  -0.699  -0.674  -0.670
 -0.659  -0.657  -0.654  -0.653  -0.647  -0.644  -0.630  -0.627
 -0.626  -0.624  -0.623  -0.622  -0.619  -0.619  -0.616  -0.614
 -0.613  -0.613  -0.613  -0.611  -0.609  -0.608  -0.607  -0.606
 -0.604  -0.603  -0.601  -0.600  -0.570  -0.565  -0.563  -0.562
 -0.561  -0.559  -0.558  -0.556  -0.554  -0.554  -0.550  -0.549
 -0.534  -0.532  -0.530  -0.529  -0.527  -0.525  -0.524  -0.524
 -0.521  -0.520  -0.517  -0.516  -0.515  -0.515  -0.512  -0.511
 -0.506  -0.503  -0.497  -0.496  -0.494  -0.491  -0.489  -0.486
 -0.484  -0.481  -0.480  -0.480  -0.478  -0.477  -0.475  -0.475
 -0.474  -0.472  -0.471  -0.468  -0.468  -0.466  -0.465  -0.464
 -0.462  -0.462  -0.461  -0.461  -0.459  -0.459  -0.459  -0.457
 -0.456  -0.455  -0.451  -0.448  -0.445  -0.442  -0.442  -0.441
 -0.441  -0.440  -0.437  -0.436  -0.436  -0.434  -0.431  -0.429
 -0.429  -0.428  -0.427  -0.426  -0.425  -0.425  -0.423  -0.421
 -0.420  -0.420  -0.419  -0.418  -0.417  -0.417  -0.416  -0.416
 -0.416  -0.415  -0.413  -0.413  -0.412  -0.412  -0.411  -0.411
 -0.410  -0.409  -0.407  -0.405  -0.403  -0.396  -0.396  -0.395
 -0.393  -0.391  -0.390  -0.388  -0.388  -0.386  -0.384  -0.379
 -0.378  -0.377  -0.373  -0.369  -0.368  -0.367  -0.365  -0.364
 -0.363  -0.362  -0.360  -0.359  -0.358  -0.358  -0.356  -0.356
 -0.355  -0.355  -0.354  -0.354  -0.352  -0.351  -0.351  -0.350
 -0.348  -0.348  -0.347  -0.345  -0.345  -0.344  -0.343  -0.341
 -0.340  -0.338  -0.338  -0.336  -0.336  -0.335  -0.333  -0.332
 -0.330  -0.328  -0.328  -0.327  -0.326  -0.324  -0.324  -0.321
 -0.314  -0.310  -0.303  -0.296  -0.286  -0.277  -0.271  -0.269
 -0.267  -0.266  -0.266  -0.266  -0.265  -0.264  -0.263  -0.262
 -0.260  -0.259  -0.258  -0.257  -0.257  -0.256  -0.253  -0.252
 -0.247  -0.245  -0.244  -0.242  -0.220  -0.215  -0.212  -0.210
 -0.208  -0.206  -0.204  -0.203  -0.199  -0.196

          Ground-State Mulliken Net Atomic Charges

     Atom                 Charge (a.u.)
  ----------------------------------------
      1 O                    -0.433034
      2 C                    -0.102046
      3 H                     0.141696
      4 H                     0.138864
      5 H                     0.128475
      6 O                    -0.490075
      7 C                     0.578243
      8 C                    -0.240707
      9 H                     0.120116
     10 H                     0.120359
     11 C                    -0.187266
     12 H                     0.125258
     13 H                     0.105561
     14 C                    -0.194444
     15 H                     0.108173
     16 H                     0.113762
     17 C                     0.027898
     18 C                     0.051832
     19 C                    -0.095915
     20 H                     0.104977
     21 C                    -0.091095
     22 H                     0.094467
     23 C                    -0.077567
     24 H                     0.095681
     25 C                    -0.094163
     26 H                     0.092842
     27 C                    -0.105385
     28 H                     0.097377
     29 C                    -0.013591
     30 C                    -0.018675
     31 C                     0.005282
     32 C                     0.002857
     33 C                    -0.001039
     34 C                    -0.033026
     35 C                     0.025399
     36 C                    -0.007162
     37 C                     0.010905
     38 C                    -0.001636
     39 C                    -0.097692
     40 C                     0.000963
     41 C                    -0.026614
     42 C                     0.004019
     43 C                     0.026478
     44 C                     0.006040
     45 C                    -0.072388
     46 C                     0.030525
     47 C                     0.010503
     48 C                    -0.004012
     49 C                    -0.001052
     50 C                    -0.002515
     51 C                    -0.005216
     52 C                    -0.003677
     53 C                     0.009567
     54 C                     0.034533
     55 C                     0.006497
     56 C                    -0.017164
     57 C                    -0.032569
     58 C                    -0.043067
     59 C                    -0.006057
     60 C                     0.061131
     61 C                     0.041354
     62 C                     0.004383
     63 C                    -0.006804
     64 C                    -0.015439
     65 C                    -0.019529
     66 C                    -0.005378
     67 C                    -0.011500
     68 C                    -0.024881
     69 C                    -0.002620
     70 C                     0.044782
     71 C                    -0.008385
     72 C                    -0.017191
     73 C                     0.027003
     74 C                     0.020325
     75 C                    -0.007916
     76 C                    -0.031626
     77 C                    -0.004888
     78 C                    -0.003419
     79 C                     0.015390
     80 C                     0.013948
     81 C                     0.008113
     82 C                    -0.008631
     83 C                    -0.012219
     84 C                    -0.015629
     85 C                     0.023813
     86 C                    -0.011272
     87 C                     0.017958
     88 C                     0.010752
     89 O                    -0.450631
     90 C                    -0.091502
     91 H                     0.127814
     92 H                     0.131943
     93 H                     0.141309
     94 O                    -0.500979
     95 C                     0.592753
     96 C                    -0.260241
     97 H                     0.124466
     98 H                     0.141066
     99 C                    -0.185375
    100 H                     0.124998
    101 H                     0.126714
    102 C                    -0.172708
    103 H                     0.110494
    104 H                     0.108894
    105 C                    -0.001348
    106 C                     0.093900
    107 C                    -0.118181
    108 H                     0.089966
    109 C                    -0.091945
    110 H                     0.091151
    111 C                    -0.084640
    112 H                     0.095446
    113 C                    -0.101589
    114 H                     0.092975
    115 C                    -0.100133
    116 H                     0.097530
    117 C                    -0.034749
    118 C                     0.024820
    119 C                     0.004840
    120 C                    -0.050601
    121 C                    -0.010566
    122 C                    -0.002936
    123 C                    -0.000451
    124 C                    -0.018799
    125 C                    -0.003465
    126 C                     0.006523
    127 C                    -0.098874
    128 C                     0.006264
    129 C                    -0.027804
    130 C                     0.009549
    131 C                     0.022016
    132 C                     0.051420
    133 C                    -0.096523
    134 C                     0.025325
    135 C                    -0.021623
    136 C                    -0.004319
    137 C                    -0.029548
    138 C                     0.034162
    139 C                    -0.027353
    140 C                    -0.012065
    141 C                     0.033569
    142 C                     0.007879
    143 C                    -0.000060
    144 C                     0.018391
    145 C                     0.000548
    146 C                     0.007324
    147 C                     0.001619
    148 C                     0.016957
    149 C                    -0.027383
    150 C                    -0.022275
    151 C                    -0.017897
    152 C                    -0.039333
    153 C                     0.004708
    154 C                    -0.008394
    155 C                    -0.001482
    156 C                     0.041423
    157 C                     0.030605
    158 C                     0.044127
    159 C                    -0.017949
    160 C                    -0.000410
    161 C                     0.034127
    162 C                     0.021997
    163 C                    -0.028890
    164 C                     0.006379
    165 C                    -0.015448
    166 C                    -0.029639
    167 C                     0.038638
    168 C                    -0.006536
    169 C                    -0.002758
    170 C                     0.020996
    171 C                     0.015320
    172 C                    -0.025544
    173 C                     0.004988
    174 C                     0.014376
    175 C                     0.005953
    176 C                    -0.005240
  ----------------------------------------
  Sum of atomic charges =     0.000000

                    Cartesian Multipole Moments
 -----------------------------------------------------------------
    Charge (ESU x 10^10)
                 0.0000
    Dipole Moment (Debye)
         X       1.6043      Y       0.8977      Z       2.1240
       Tot       2.8091
    Quadrupole Moments (Debye-Ang)
        XX    -692.4549     XY      39.6868     YY    -803.2076
        XZ      -4.2453     YZ      17.1439     ZZ    -804.9733

 Total job time:  850.68s(wall), 8087.72s(cpu)
        *  Thank you very much for using Q-Chem.  Have a nice day.  *
