 Q-Chem 4.4, Q-Chem, Inc., Pleasanton, CA (2016)
 Q-Chem 4.4.2 for Intel X86 Linux

User input:
--------------------------------------------------------------
$comment
SP
$end

$rem
MEM_STATIC 5000
MEM_TOTAL 20000
JOBTYPE SP
EXCHANGE B3LYP
BASIS 6-31g(d,p)
$end

$molecule
0 1
O         -22.387000     32.801000     10.580000
C         -22.026000     34.259000     10.388000
H         -21.251000     34.589000     11.091000
H         -22.897000     34.925000     10.407000
H         -21.711000     34.320000      9.339000
O         -20.952000     31.936000      8.957000
C         -21.718000     31.780000      9.865000
C         -22.129000     30.386000     10.362000
H         -23.219000     30.504000     10.377000
H         -21.795000     30.346000     11.407000
C         -21.690000     29.123000      9.516000
H         -22.046000     29.246000      8.485000
H         -20.605000     28.984000      9.438000
C         -22.292000     27.802000     10.079000
H         -21.922000     27.617000     11.095000
H         -23.372000     27.782000     10.272000
C         -21.988000     26.512000      9.174000
C         -22.375000     26.805000      7.744000
C         -21.468000     27.018000      6.663000
H         -20.432000     26.942000      6.982000
C         -21.825000     27.251000      5.359000
H         -21.011000     27.324000      4.644000
C         -23.183000     27.376000      5.053000
H         -23.398000     27.623000      4.018000
C         -24.133000     27.169000      6.097000
H         -25.166000     27.435000      5.893000
C         -23.726000     26.816000      7.417000
H         -24.468000     26.840000      8.210000
C         -23.182000     21.209000      8.838000
C         -21.047000     21.321000      7.858000
C         -18.743000     19.242000     11.148000
C         -23.075000     23.342000     13.471000
C         -17.591000     22.340000     12.470000
C         -22.265000     21.918000      8.088000
C         -20.534000     22.907000     14.444000
C         -20.896000     18.636000     10.182000
C         -18.885000     24.322000      9.292000
C         -22.107000     24.420000     13.457000
C         -20.930000     25.532000      9.611000
C         -18.796000     24.948000     10.552000
C         -19.841000     24.909000     13.162000
C         -19.273000     22.390000     14.188000
C         -20.757000     23.560000      7.996000
C         -18.631000     20.268000     13.187000
C         -22.359000     25.181000      9.794000
C         -22.839000     24.978000     11.189000
C         -17.761000     20.930000     12.343000
C         -22.730000     19.860000     13.051000
C         -20.676000     18.983000     12.564000
C         -21.466000     18.628000     11.484000
C         -21.588000     19.314000      9.114000
C         -23.691000     23.904000     11.230000
C         -20.155000     24.626000      8.728000
C         -20.640000     20.042000      8.360000
C         -20.807000     24.204000     13.951000
C         -20.080000     22.325000      7.805000
C         -18.068000     24.343000     11.585000
C         -24.040000     21.683000     12.257000
C         -19.546000     18.939000     10.006000
C         -20.026000     25.617000     10.811000
C         -23.360000     19.939000     10.657000
C         -18.539000     24.342000     12.925000
C         -18.235000     23.116000      9.075000
C         -20.817000     20.770000     14.237000
C         -21.487000     21.931000     14.573000
C         -17.466000     22.504000     10.049000
C         -23.867000     23.062000     12.395000
C         -21.981000     25.194000     12.274000
C         -23.329000     21.113000     13.294000
C         -22.975000     24.080000      9.008000
C         -18.412000     20.887000      8.802000
C         -20.610000     25.429000     12.094000
C         -17.412000     23.119000     11.346000
C         -24.091000     21.096000     10.922000
C         -17.815000     20.285000     11.096000
C         -22.835000     19.913000      9.401000
C         -19.283000     19.297000     12.426000
C         -18.797000     22.133000      8.277000
C         -17.629000     21.090000      9.916000
C         -22.139000     23.351000      8.115000
C         -23.768000     23.349000      9.912000
C         -21.425000     19.757000     13.460000
C         -19.388000     19.853000      8.905000
C         -18.325000     23.050000     13.406000
C         -22.777000     22.147000     14.051000
C         -19.415000     20.997000     14.092000
C         -23.896000     21.920000      9.807000
C         -22.676000     19.292000     11.753000
O         -21.033000     16.988000      4.708000
C         -20.848000     17.764000      5.953000
H         -20.250000     17.251000      6.717000
H         -21.781000     17.976000      6.490000
H         -20.322000     18.709000      5.769000
O         -22.335000     15.369000      5.625000
C         -21.745000     15.881000      4.685000
C         -21.914000     15.401000      3.220000
H         -22.279000     14.367000      3.268000
H         -20.893000     15.407000      2.821000
C         -23.010000     16.277000      2.537000
H         -23.209000     15.762000      1.589000
H         -23.909000     16.397000      3.154000
C         -22.525000     17.665000      2.106000
H         -22.211000     18.256000      2.976000
H         -21.586000     17.641000      1.540000
C         -23.622000     18.467000      1.348000
C         -23.603000     18.179000     -0.136000
C         -22.636000     18.884000     -0.904000
H         -21.999000     19.630000     -0.438000
C         -22.586000     18.734000     -2.309000
H         -21.945000     19.231000     -3.030000
C         -23.567000     17.908000     -2.973000
H         -23.612000     17.907000     -4.059000
C         -24.433000     17.239000     -2.182000
H         -25.139000     16.640000     -2.749000
C         -24.514000     17.292000     -0.828000
H         -25.317000     16.810000     -0.278000
C         -25.622000     23.594000      0.660000
C         -27.554000     22.117000      0.243000
C         -29.871000     23.082000      4.055000
C         -23.622000     22.344000      5.222000
C         -28.857000     20.170000      5.674000
C         -26.176000     22.347000      0.056000
C         -25.659000     21.392000      6.974000
C         -28.574000     24.513000      2.556000
C         -27.323000     18.741000      2.250000
C         -23.854000     20.969000      5.428000
C         -24.938000     18.797000      2.037000
C         -26.745000     18.497000      3.516000
C         -25.406000     19.317000      5.750000
C         -27.070000     21.247000      6.976000
C         -26.478000     20.155000      0.543000
C         -28.981000     22.506000      6.101000
C         -23.970000     19.861000      1.893000
C         -23.361000     20.537000      3.073000
C         -29.505000     21.378000      5.507000
C         -25.918000     24.912000      4.857000
C         -28.132000     24.506000      4.950000
C         -27.869000     25.034000      3.671000
C         -27.918000     24.290000      1.407000
C         -23.156000     21.871000      2.820000
C         -26.290000     19.060000      1.406000
C         -28.459000     23.042000      0.856000
C         -24.834000     20.449000      6.311000
C         -27.753000     20.776000      0.480000
C         -27.447000     18.765000      4.672000
C         -23.937000     24.039000      3.745000
C         -29.641000     23.575000      2.765000
C         -25.379000     18.496000      3.425000
C         -25.762000     24.965000      2.439000
C         -26.846000     19.152000      5.827000
C         -28.565000     19.345000      2.145000
C         -26.738000     23.405000      6.594000
C         -25.485000     22.782000      6.713000
C         -29.282000     19.580000      3.285000
C         -23.234000     22.793000      3.947000
C         -23.704000     20.074000      4.378000
C         -24.687000     24.265000      4.924000
C         -24.327000     21.075000      1.087000
C         -29.689000     21.267000      1.840000
C         -24.651000     19.032000      4.599000
C         -28.750000     19.292000      4.565000
C         -24.452000     24.406000      2.483000
C         -29.987000     21.697000      4.216000
C         -26.506000     24.499000      1.335000
C         -29.165000     23.556000      5.214000
C         -28.841000     20.327000      1.213000
C         -29.950000     20.804000      3.113000
C         -25.494000     21.124000      0.317000
C         -23.788000     22.230000      1.617000
C         -26.954000     24.490000      5.732000
C         -29.517000     22.660000      1.650000
C         -27.668000     20.069000      6.400000
C         -24.465000     23.281000      5.877000
C         -27.752000     22.451000      6.808000
C         -24.448000     23.473000      1.475000
C         -26.447000     25.232000      3.612000
$end

--------------------------------------------------------------

             Standard Nuclear Orientation (Angstroms)
    I     Atom           X                Y                Z
 ----------------------------------------------------------------
    1      O      -6.8771835744     8.8061499210     1.2322495327
    2      C      -7.3486948755    10.0430078601     1.9676463857
    3      H      -8.3982445585     9.9647067515     2.2775631474
    4      H      -7.1600618968    10.9713114119     1.4151718476
    5      H      -6.6549211072    10.1317130156     2.8127241063
    6      O      -5.9522596896     7.7144535195     3.0746104566
    7      C      -6.2861730830     7.7228843055     1.9239642175
    8      C      -6.0617959541     6.5202617449     0.9952447331
    9      H      -5.5937709412     7.0248298535     0.1416566526
   10      H      -7.0669593125     6.2144146811     0.6769913805
   11      C      -5.1778788166     5.3167379138     1.5185294376
   12      H      -4.1998553782     5.7050282663     1.8308221784
   13      H      -5.5851362346     4.8035366845     2.3979587377
   14      C      -4.9400290330     4.2417615250     0.4174993545
   15      H      -5.8928894991     3.7934150642     0.1102154741
   16      H      -4.5797490577     4.5906382661    -0.5584782882
   17      C      -3.9350369831     3.0709992901     0.8589149965
   18      C      -2.6676501596     3.6831972301     1.4061465030
   19      C      -2.2763380422     3.7000675467     2.7784326317
   20      H      -3.0065307663     3.2068698872     3.4143631737
   21      C      -1.1079391231     4.2283645532     3.2661828124
   22      H      -0.9294193267     4.0988653729     4.3294375536
   23      C      -0.2509731117     4.8824254305     2.3766668632
   24      H       0.6244538732     5.3338899047     2.8330290250
   25      C      -0.5933371677     4.8919877123     0.9917551635
   26      H      -0.0188040731     5.5427490765     0.3391585270
   27      C      -1.7609303891     4.2327513014     0.5072023553
   28      H      -2.0682294397     4.4142397982    -0.5187694859
   29      C      -1.4261556180    -1.3255839099    -1.1500428081
   30      C      -1.6690904872    -1.8643623102     1.1263291924
   31      C      -4.8146985000    -5.0819515555     0.6713273486
   32      C      -5.9561494464    -0.0537895313    -3.1217227956
   33      C      -7.4216538485    -2.8378714628     1.5879954175
   34      C      -1.4675409039    -0.9025140883     0.1634902840
   35      C      -7.8257014515    -1.5190389472    -1.7251360817
   36      C      -2.8080761243    -4.7173454668    -0.6614629729
   37      C      -4.8171082995    -0.0941794497     2.7673768741
   38      C      -6.7427832376     0.5866452329    -2.0871433683
   39      C      -4.4887163021     1.7212802284     1.2363148723
   40      C      -6.0919493874     0.2720663033     2.2898402273
   41      C      -7.7295246317     0.2505525373     0.0043358023
   42      C      -8.0514169885    -2.4193151645    -0.6948442643
   43      C      -2.6235533836     0.0706823767     1.8052015215
   44      C      -6.8665882294    -4.4656387386    -0.1240644104
   45      C      -3.8505663058     1.8944331349    -0.0909054008
   46      C      -4.7058819926     1.6866284915    -1.2921074263
   47      C      -6.7936134610    -4.0554261186     1.1927044720
   48      C      -4.6808031449    -3.3249040616    -3.4267646634
   49      C      -4.9799467154    -4.8135753744    -1.7180853937
   50      C      -3.6054613659    -4.6997495501    -1.8379132099
   51      C      -1.8144746697    -3.6904099899    -0.4682489057
   52      C      -3.9977690113     1.0037093198    -2.2477529727
   53      C      -3.8460229953     0.7287678208     2.1324255988
   54      C      -1.8732554780    -3.2606149510     0.8767511096
   55      C      -7.6982004939    -0.1564286178    -1.3690130747
   56      C      -2.3999388884    -1.2861706762     2.1643412582
   57      C      -7.0967953473    -0.6959156781     2.1618031994
   58      C      -3.9787927864    -1.0571635866    -3.6122359396
   59      C      -3.3994016561    -4.9068015299     0.5874267402
   60      C      -5.9311640071     1.3004723172     1.3182069981
   61      C      -2.4382582424    -2.6852293279    -2.5923872936
   62      C      -7.9746178378    -0.7133826510     1.0453066343
   63      C      -4.5684099591    -1.4108262769     3.1260065829
   64      C      -6.8498723711    -3.3530676969    -2.3365305135
   65      C      -7.1727802176    -2.0872722820    -2.7873181468
   66      C      -5.5420111629    -2.3919213854     3.0617097394
   67      C      -4.6075632105     0.1292205608    -3.2278475830
   68      C      -6.0730938172     1.4193529578    -1.1530368835
   69      C      -4.9898521054    -1.9872918720    -3.7479209651
   70      C      -2.5660585730     1.2168519627    -0.4077281265
   71      C      -3.5597353855    -3.3589415094     2.6144192050
   72      C      -6.6497384869     1.1602149569     0.0989992268
   73      C      -6.8272029066    -2.0282219813     2.5331693669
   74      C      -2.6725779651    -1.3908450099    -3.0537965531
   75      C      -5.5401067998    -4.4537682730     1.6866625455
   76      C      -1.6466512528    -2.7241509833    -1.4852827463
   77      C      -5.6263827094    -5.0139609701    -0.4531525422
   78      C      -3.3367373860    -1.9978545265     2.8865958338
   79      C      -4.9111040863    -3.6148691626     2.6743997924
   80      C      -1.9997014070     0.3663476203     0.5840722183
   81      C      -2.7032411800     0.7065785502    -1.7120394301
   82      C      -5.6042053699    -3.9538575380    -2.6313648548
   83      C      -2.8562997493    -3.9684888902     1.5346176972
   84      C      -8.0658158730    -2.0481550766     0.6497229007
   85      C      -6.1990889399    -1.3439104598    -3.4819968474
   86      C      -7.4674960574    -3.6358146279    -1.0808421942
   87      C      -2.1072577531    -0.5468955574    -2.0902674255
   88      C      -3.4608211718    -3.6846563156    -2.8002135474
   89      O       2.2752588115    -5.4135284740     1.8632913025
   90      C       0.9200594418    -4.9421998552     1.5059259412
   91      H       0.1691911456    -5.7401883617     1.4436351284
   92      H       0.8548499929    -4.4819272957     0.5120955238
   93      H       0.5247938928    -4.2388036994     2.2492670431
   94      O       2.6479591595    -6.5568907792    -0.0631227468
   95      C       2.9798993523    -6.1689399964     1.0473518807
   96      C       4.4154004303    -6.3427675409     1.6079824543
   97      H       4.8740130754    -7.1677262607     1.0478016332
   98      H       4.2568947853    -6.6539906706     2.6470657638
   99      C       5.2220442966    -5.0402557384     1.3115542552
  100      H       6.2577139296    -5.3080873355     1.5548332040
  101      H       5.1038205971    -4.6883189500     0.2793461106
  102      C       4.9101601250    -3.8794685960     2.2617286989
  103      H       3.8601558818    -3.5727244033     2.1713069673
  104      H       4.9373080242    -4.1648496909     3.3202529651
  105      C       5.8021878624    -2.6341339554     1.9885892679
  106      C       7.1037533124    -2.6972668722     2.7550764590
  107      C       7.0546886920    -2.2936060879     4.1176433873
  108      H       6.1348262024    -1.9053428453     4.5448970062
  109      C       8.2332361318    -2.2521871489     4.8976019782
  110      H       8.3656210580    -1.9274840344     5.9246234574
  111      C       9.5043181896    -2.5605688107     4.2854058061
  112      H      10.4188814210    -2.3922306390     4.8481298554
  113      C       9.4752190694    -2.9712256495     2.9994383873
  114      H      10.4646989737    -3.1848029290     2.6069587515
  115      C       8.3837892429    -3.0834075081     2.2001373399
  116      H       8.4641868588    -3.3110778692     1.1412060720
  117      C       5.7067038751     2.9111096971     1.9635165268
  118      C       7.4306480637     2.3162315380     0.3015362591
  119      C       5.0932461512     3.5140375389    -3.4311398699
  120      C       1.3991779628     0.3884152561     0.7570434553
  121      C       4.1955373042     0.2361852490    -4.1919974072
  122      C       6.8580063937     2.0509209143     1.5618714489
  123      C       1.2247387886     0.0097778360    -2.0627759855
  124      C       5.2604846495     4.5681238968    -1.2316162317
  125      C       6.7313816071    -1.1572346978    -1.4086814849
  126      C       1.7718693492    -0.8211480079     0.1366058349
  127      C       5.7567504820    -1.9467844942     0.6317682913
  128      C       5.4927718346    -1.7710209399    -1.7010652747
  129      C       2.7628086141    -1.8198428145    -1.6695337102
  130      C       1.9384478249     0.3913931896    -3.2276532895
  131      C       7.2895390549     0.0755585304     0.5396385915
  132      C       3.1695203159     2.3710252363    -3.9814068841
  133      C       5.0813979236    -1.3009390744     1.7347817162
  134      C       3.6097796913    -1.0673402310     1.7294564128
  135      C       4.2609784303     1.6079790718    -4.3367598569
  136      C       1.9825018921     3.6414617316    -0.2806881198
  137      C       3.0845663084     4.0633670528    -2.1997323929
  138      C       3.8454269798     4.6331737273    -1.1604030936
  139      C       5.9638161547     4.2850170101    -0.1246197166
  140      C       3.3014270751     0.1209688128     2.3446232848
  141      C       6.8347267642    -1.1221897738    -0.0414662012
  142      C       7.0656861369     3.4117018794    -0.5453205901
  143      C       1.6744402245    -1.0660026398    -1.2566072770
  144      C       7.7515062631     1.1215411406    -0.3016352507
  145      C       4.7913854805    -1.4306888379    -2.8382527011
  146      C       2.2306175606     2.2710833988     1.7151915961
  147      C       5.8898105395     4.0652366971    -2.4203413424
  148      C       4.9194614812    -2.2580296016    -0.5572227147
  149      C       3.8798307774     3.9735230164     1.1902800663
  150      C       3.4349031174    -1.4565945614    -2.9036705281
  151      C       7.2175554330    -0.1330379244    -2.2043327781
  152      C       1.4170256434     2.3097355801    -2.2472485866
  153      C       0.9200880577     1.2620670266    -1.4549464739
  154      C       6.5468107995     0.1846567067    -3.3524119383
  155      C       2.1222284900     0.8393086204     1.8758209619
  156      C       2.8451000042    -1.5517733716     0.6268991542
  157      C       1.5463002461     2.5870602386     0.5170741353
  158      C       5.5321890372     0.0600172438     2.1768973932
  159      C       7.3981262610     2.0890604641    -2.4874545325
  160      C       3.4402650853    -2.1958791085    -0.4966311417
  161      C       5.3323485443    -0.4547891963    -3.6996270989
  162      C       3.3973943221     2.9744851323     2.0845369494
  163      C       5.4510115187     2.2592386851    -3.9362000429
  164      C       5.2870806581     3.9717811852     1.0946101164
  165      C       3.6563019979     3.5292799375    -3.3943680087
  166      C       7.8063686790     1.0025745684    -1.6820232650
  167      C       6.6208307747     1.5791821526    -3.5066968171
  168      C       6.7038524378     0.6396783752     1.6785121523
  169      C       4.4777483883     0.8514372500     2.5858659640
  170      C       1.8874487150     3.5083671682    -1.6914523562
  171      C       7.0351077599     3.3348495530    -1.9196868742
  172      C       3.0659411748    -0.3931706248    -3.6638669607
  173      C       0.9664833861     1.4663741728    -0.0605279343
  174      C       2.0221075199     1.7720644112    -3.4000250770
  175      C       4.5173368650     2.2563035075     2.4258767427
  176      C       3.1567115602     4.3043338485     0.0570961487
 ----------------------------------------------------------------

    9   -5804.2326172064      8.39E-06 Convergence criterion met
 Total energy in the final basis set = -5804.2326172064

                    Orbital Energies (a.u.)
 --------------------------------------------------------------

 Alpha MOs
 -- Occupied --
-19.200 -19.184 -19.141 -19.123 -10.320 -10.308 -10.250 -10.247
-10.244 -10.242 -10.241 -10.238 -10.237 -10.235 -10.232 -10.231
-10.230 -10.229 -10.227 -10.226 -10.226 -10.226 -10.226 -10.225
-10.225 -10.225 -10.224 -10.224 -10.224 -10.224 -10.223 -10.223
-10.223 -10.222 -10.222 -10.222 -10.222 -10.221 -10.221 -10.221
-10.221 -10.221 -10.221 -10.220 -10.220 -10.220 -10.220 -10.220
-10.220 -10.220 -10.220 -10.219 -10.219 -10.219 -10.219 -10.219
-10.219 -10.219 -10.219 -10.218 -10.218 -10.218 -10.218 -10.218
-10.218 -10.218 -10.217 -10.217 -10.217 -10.217 -10.217 -10.217
-10.217 -10.217 -10.217 -10.216 -10.216 -10.216 -10.216 -10.216
-10.216 -10.216 -10.216 -10.216 -10.215 -10.215 -10.215 -10.215
-10.215 -10.215 -10.215 -10.215 -10.215 -10.215 -10.215 -10.215
-10.214 -10.214 -10.214 -10.214 -10.214 -10.213 -10.213 -10.213
-10.213 -10.213 -10.213 -10.213 -10.213 -10.213 -10.213 -10.213
-10.213 -10.212 -10.212 -10.212 -10.212 -10.212 -10.211 -10.211
-10.211 -10.211 -10.211 -10.211 -10.210 -10.210 -10.210 -10.210
-10.208 -10.207 -10.207 -10.205 -10.204 -10.204 -10.204 -10.203
-10.203 -10.203 -10.202 -10.201 -10.200 -10.200 -10.199 -10.197
-10.197 -10.195 -10.195 -10.189  -1.099  -1.076  -1.004  -1.001
 -0.986  -0.983  -0.969  -0.966  -0.966  -0.964  -0.963  -0.959
 -0.940  -0.934  -0.931  -0.928  -0.926  -0.925  -0.923  -0.923
 -0.922  -0.921  -0.899  -0.897  -0.895  -0.891  -0.890  -0.887
 -0.876  -0.873  -0.855  -0.854  -0.843  -0.841  -0.840  -0.838
 -0.838  -0.833  -0.819  -0.818  -0.802  -0.802  -0.799  -0.797
 -0.797  -0.795  -0.795  -0.795  -0.794  -0.789  -0.784  -0.784
 -0.775  -0.772  -0.769  -0.768  -0.765  -0.765  -0.764  -0.763
 -0.750  -0.748  -0.742  -0.738  -0.733  -0.731  -0.719  -0.717
 -0.717  -0.717  -0.715  -0.713  -0.712  -0.711  -0.710  -0.708
 -0.708  -0.707  -0.706  -0.706  -0.703  -0.700  -0.674  -0.671
 -0.661  -0.658  -0.657  -0.656  -0.647  -0.646  -0.635  -0.632
 -0.631  -0.630  -0.627  -0.626  -0.623  -0.621  -0.619  -0.617
 -0.616  -0.615  -0.614  -0.612  -0.610  -0.609  -0.609  -0.608
 -0.607  -0.607  -0.605  -0.601  -0.570  -0.566  -0.564  -0.564
 -0.563  -0.562  -0.558  -0.558  -0.556  -0.556  -0.555  -0.548
 -0.536  -0.535  -0.534  -0.533  -0.530  -0.529  -0.528  -0.528
 -0.526  -0.524  -0.521  -0.520  -0.519  -0.518  -0.516  -0.513
 -0.507  -0.506  -0.500  -0.493  -0.490  -0.489  -0.487  -0.485
 -0.484  -0.484  -0.483  -0.480  -0.479  -0.477  -0.476  -0.474
 -0.473  -0.473  -0.471  -0.470  -0.468  -0.468  -0.467  -0.466
 -0.465  -0.464  -0.463  -0.463  -0.463  -0.460  -0.459  -0.458
 -0.454  -0.453  -0.450  -0.450  -0.447  -0.446  -0.444  -0.443
 -0.442  -0.441  -0.440  -0.439  -0.437  -0.437  -0.434  -0.433
 -0.432  -0.431  -0.430  -0.429  -0.427  -0.426  -0.425  -0.425
 -0.424  -0.423  -0.423  -0.422  -0.421  -0.421  -0.420  -0.419
 -0.418  -0.417  -0.417  -0.415  -0.415  -0.414  -0.414  -0.413
 -0.412  -0.412  -0.410  -0.408  -0.404  -0.400  -0.397  -0.397
 -0.395  -0.394  -0.392  -0.392  -0.390  -0.389  -0.386  -0.384
 -0.378  -0.377  -0.376  -0.373  -0.372  -0.370  -0.369  -0.368
 -0.367  -0.366  -0.365  -0.364  -0.363  -0.362  -0.360  -0.360
 -0.360  -0.358  -0.357  -0.357  -0.356  -0.356  -0.351  -0.351
 -0.350  -0.350  -0.349  -0.349  -0.348  -0.348  -0.345  -0.345
 -0.342  -0.342  -0.340  -0.339  -0.338  -0.337  -0.336  -0.333
 -0.332  -0.332  -0.330  -0.330  -0.329  -0.325  -0.324  -0.324
 -0.310  -0.306  -0.299  -0.297  -0.289  -0.288  -0.276  -0.272
 -0.270  -0.270  -0.269  -0.268  -0.268  -0.267  -0.266  -0.264
 -0.263  -0.260  -0.260  -0.259  -0.257  -0.256  -0.255  -0.254
 -0.248  -0.247  -0.244  -0.241  -0.224  -0.221  -0.217  -0.213
 -0.209  -0.208  -0.206  -0.206  -0.199  -0.197

          Ground-State Mulliken Net Atomic Charges

     Atom                 Charge (a.u.)
  ----------------------------------------
      1 O                    -0.510834
      2 C                    -0.093031
      3 H                     0.132491
      4 H                     0.130189
      5 H                     0.141260
      6 O                    -0.443235
      7 C                     0.586476
      8 C                    -0.260387
      9 H                     0.135642
     10 H                     0.134677
     11 C                    -0.176049
     12 H                     0.130760
     13 H                     0.118512
     14 C                    -0.180529
     15 H                     0.104232
     16 H                     0.104923
     17 C                    -0.009850
     18 C                     0.092976
     19 C                    -0.102133
     20 H                     0.081260
     21 C                    -0.076606
     22 H                     0.097618
     23 C                    -0.092618
     24 H                     0.097566
     25 C                    -0.102520
     26 H                     0.096471
     27 C                    -0.116915
     28 H                     0.090625
     29 C                    -0.027514
     30 C                     0.019446
     31 C                    -0.010451
     32 C                     0.022344
     33 C                     0.016062
     34 C                     0.011937
     35 C                     0.026841
     36 C                    -0.001688
     37 C                     0.013145
     38 C                    -0.026143
     39 C                    -0.076007
     40 C                     0.003303
     41 C                    -0.013825
     42 C                     0.008673
     43 C                    -0.018164
     44 C                    -0.011652
     45 C                    -0.088001
     46 C                     0.059707
     47 C                     0.008324
     48 C                    -0.031844
     49 C                     0.010533
     50 C                     0.005218
     51 C                    -0.033925
     52 C                    -0.008632
     53 C                     0.022745
     54 C                    -0.018073
     55 C                    -0.012890
     56 C                    -0.001846
     57 C                     0.005250
     58 C                    -0.012231
     59 C                    -0.013253
     60 C                     0.001886
     61 C                     0.019070
     62 C                    -0.043198
     63 C                     0.032008
     64 C                     0.020420
     65 C                    -0.020002
     66 C                    -0.014845
     67 C                    -0.003370
     68 C                    -0.005400
     69 C                     0.021000
     70 C                     0.030590
     71 C                    -0.016921
     72 C                     0.023692
     73 C                    -0.019631
     74 C                    -0.015945
     75 C                     0.011262
     76 C                     0.009777
     77 C                     0.001201
     78 C                    -0.011044
     79 C                    -0.013738
     80 C                     0.016373
     81 C                     0.007910
     82 C                     0.017951
     83 C                     0.024626
     84 C                     0.026609
     85 C                    -0.011679
     86 C                    -0.023512
     87 C                     0.005755
     88 C                    -0.000474
     89 O                    -0.438146
     90 C                    -0.106332
     91 H                     0.132682
     92 H                     0.140414
     93 H                     0.129974
     94 O                    -0.478913
     95 C                     0.570584
     96 C                    -0.241478
     97 H                     0.126350
     98 H                     0.117392
     99 C                    -0.189715
    100 H                     0.112096
    101 H                     0.124306
    102 C                    -0.184591
    103 H                     0.119668
    104 H                     0.110696
    105 C                     0.000755
    106 C                     0.067510
    107 C                    -0.101518
    108 H                     0.093203
    109 C                    -0.100779
    110 H                     0.091019
    111 C                    -0.076663
    112 H                     0.094653
    113 C                    -0.079177
    114 H                     0.080585
    115 C                    -0.095824
    116 H                     0.096667
    117 C                    -0.036822
    118 C                     0.038679
    119 C                    -0.017836
    120 C                     0.004072
    121 C                    -0.007871
    122 C                    -0.054022
    123 C                     0.002468
    124 C                     0.011926
    125 C                     0.009899
    126 C                     0.013738
    127 C                    -0.076444
    128 C                     0.038073
    129 C                     0.000447
    130 C                    -0.027841
    131 C                     0.006850
    132 C                     0.002778
    133 C                    -0.072904
    134 C                     0.039415
    135 C                     0.004150
    136 C                    -0.013938
    137 C                     0.007960
    138 C                    -0.002971
    139 C                    -0.008285
    140 C                    -0.026930
    141 C                     0.010949
    142 C                    -0.007912
    143 C                     0.002213
    144 C                    -0.001811
    145 C                     0.011094
    146 C                     0.008234
    147 C                    -0.016363
    148 C                     0.000638
    149 C                    -0.001951
    150 C                    -0.003116
    151 C                     0.018296
    152 C                     0.004321
    153 C                     0.013218
    154 C                    -0.011092
    155 C                    -0.038071
    156 C                     0.002307
    157 C                     0.042675
    158 C                     0.049514
    159 C                    -0.010618
    160 C                    -0.036141
    161 C                    -0.015044
    162 C                    -0.024169
    163 C                     0.028499
    164 C                     0.013127
    165 C                    -0.011486
    166 C                    -0.017803
    167 C                     0.001259
    168 C                    -0.005698
    169 C                     0.023119
    170 C                    -0.022143
    171 C                     0.001779
    172 C                     0.007052
    173 C                     0.002881
    174 C                     0.008524
    175 C                     0.023641
    176 C                    -0.008666
  ----------------------------------------
  Sum of atomic charges =     0.000000

                    Cartesian Multipole Moments
 -----------------------------------------------------------------
    Charge (ESU x 10^10)
                 0.0000
    Dipole Moment (Debye)
         X      -0.1521      Y       2.8371      Z       2.2883
       Tot       3.6481
    Quadrupole Moments (Debye-Ang)
        XX    -784.3774     XY     -27.1359     YY    -800.9356
        XZ      19.9884     YZ     -14.2734     ZZ    -806.5469

 Total job time:  887.46s(wall), 8498.82s(cpu)
        *  Thank you very much for using Q-Chem.  Have a nice day.  *
