 Q-Chem 4.4, Q-Chem, Inc., Pleasanton, CA (2016)
 Q-Chem 4.4.2 for Intel X86 Linux

User input:
--------------------------------------------------------------
$comment
SP
$end

$rem
MEM_STATIC 5000
MEM_TOTAL 20000
JOBTYPE SP
EXCHANGE B3LYP
BASIS 6-31g(d,p)
$end

$molecule
0 1
O         -18.601000     -5.245000     11.675000
C         -19.736000     -4.450000     11.987000
H         -19.880000     -3.847000     11.083000
H         -19.639000     -3.822000     12.881000
H         -20.651000     -5.032000     12.158000
O         -19.037000     -7.057000     13.093000
C         -18.262000     -6.356000     12.449000
C         -16.802000     -6.776000     12.244000
H         -16.422000     -7.456000     13.016000
H         -16.244000     -5.842000     12.380000
C         -16.494000     -7.347000     10.905000
H         -16.891000     -6.679000     10.130000
H         -15.401000     -7.327000     10.823000
C         -17.131000     -8.741000     10.729000
H         -16.721000     -9.518000     11.385000
H         -18.173000     -8.541000     11.010000
C         -17.088000     -9.115000      9.217000
C         -18.128000     -8.405000      8.414000
C         -17.836000     -7.309000      7.501000
H         -16.826000     -6.910000      7.497000
C         -18.833000     -6.527000      6.839000
H         -18.577000     -5.531000      6.490000
C         -20.164000     -6.903000      7.048000
H         -21.001000     -6.354000      6.627000
C         -20.402000     -8.037000      7.804000
H         -21.445000     -8.301000      7.950000
C         -19.476000     -8.734000      8.576000
H         -19.713000     -9.553000      9.249000
C         -16.644000    -13.379000      5.577000
C         -15.397000    -11.549000      4.477000
C         -11.247000    -13.377000      5.086000
C         -14.840000    -14.106000     10.303000
C         -10.664000    -11.358000      7.856000
C         -16.513000    -12.019000      5.260000
C         -12.191000    -13.432000     10.234000
C         -13.386000    -14.530000      4.526000
C         -13.834000     -9.092000      7.163000
C         -14.451000    -12.814000     10.750000
C         -15.733000     -9.522000      8.589000
C         -13.340000     -9.298000      8.467000
C         -12.974000    -11.179000     10.367000
C         -11.095000    -13.073000      9.488000
C         -15.772000     -9.992000      6.069000
C         -10.513000    -13.661000      7.208000
C         -16.774000    -10.600000      8.864000
C         -16.402000    -11.721000      9.764000
C         -10.422000    -12.355000      6.867000
C         -13.803000    -15.968000      7.656000
C         -12.011000    -15.366000      6.392000
C         -13.164000    -15.478000      5.564000
C         -14.657000    -13.914000      4.268000
C         -16.791000    -12.947000      9.206000
C         -15.195000     -9.328000      7.145000
C         -14.498000    -12.519000      3.928000
C         -13.119000    -12.524000     10.672000
C         -14.971000    -10.326000      4.938000
C         -12.067000     -9.815000      8.614000
C         -15.883000    -15.179000      8.577000
C         -12.421000    -13.448000      4.298000
C         -14.424000     -9.647000      9.288000
C         -15.535000    -15.294000      6.141000
C         -11.894000    -10.763000      9.604000
C         -13.034000     -9.405000      6.046000
C         -11.821000    -15.085000      8.744000
C         -12.624000    -14.691000      9.825000
C         -11.769000     -9.989000      6.176000
C         -16.061000    -14.150000      9.541000
C         -15.151000    -11.685000     10.406000
C         -14.593000    -15.766000      8.754000
C         -17.164000    -11.395000      7.585000
C         -12.662000    -11.038000      4.516000
C         -14.216000    -10.665000     10.184000
C         -11.284000    -10.201000      7.514000
C         -16.294000    -14.934000      7.257000
C         -10.860000    -12.110000      5.587000
C         -15.760000    -14.362000      5.043000
C         -11.124000    -14.306000      6.153000
C         -13.594000    -10.084000      4.962000
C         -11.482000    -10.930000      5.226000
C         -16.672000    -11.032000      6.264000
C         -17.173000    -12.762000      7.908000
C         -12.444000    -15.751000      7.711000
C         -13.088000    -12.292000      4.028000
C         -11.016000    -11.716000      9.099000
C         -13.949000    -15.077000      9.794000
C         -10.841000    -14.078000      8.561000
C         -16.945000    -13.732000      6.930000
C         -14.279000    -15.862000      6.348000
O         -15.981000    -17.321000      2.552000
C         -14.713000    -16.889000      2.039000
H         -14.391000    -15.979000      2.559000
H         -14.873000    -16.724000      0.966000
H         -13.982000    -17.686000      2.225000
O         -16.984000    -15.327000      1.992000
C         -17.037000    -16.435000      2.397000
C         -18.374000    -17.182000      2.738000
H         -18.177000    -18.211000      2.413000
H         -19.207000    -16.600000      2.326000
C         -18.588000    -17.195000      4.250000
H         -17.660000    -17.580000      4.691000
H         -18.685000    -16.175000      4.642000
C         -19.877000    -18.007000      4.677000
H         -20.783000    -17.609000      4.202000
H         -19.870000    -19.006000      4.226000
C         -20.008000    -17.984000      6.209000
C         -19.022000    -18.973000      6.901000
C         -17.767000    -18.519000      7.304000
H         -17.531000    -17.471000      7.150000
C         -16.876000    -19.331000      8.062000
H         -15.904000    -18.903000      8.286000
C         -17.302000    -20.577000      8.449000
H         -16.627000    -21.218000      9.010000
C         -18.590000    -21.088000      8.149000
H         -18.967000    -22.057000      8.462000
C         -19.428000    -20.300000      7.300000
H         -20.449000    -20.613000      7.105000
C         -23.148000    -18.359000     10.533000
C         -21.271000    -17.100000     11.434000
C         -23.381000    -13.065000     11.896000
C         -25.161000    -16.094000      6.415000
C         -22.207000    -11.867000      8.789000
C         -21.835000    -18.101000     10.596000
C         -24.778000    -13.321000      6.729000
C         -24.160000    -15.372000     12.329000
C         -19.657000    -14.883000      8.491000
C         -24.109000    -15.468000      5.715000
C         -20.285000    -16.698000      6.947000
C         -20.166000    -14.318000      7.320000
C         -22.531000    -13.796000      5.989000
C         -24.246000    -12.275000      7.527000
C         -20.119000    -17.105000      9.459000
C         -24.243000    -12.131000      9.973000
C         -21.356000    -17.756000      6.830000
C         -22.660000    -17.335000      6.303000
C         -22.867000    -11.792000     10.006000
C         -26.379000    -15.555000      9.667000
C         -25.500000    -13.948000     11.022000
C         -25.374000    -15.193000     11.684000
C         -23.488000    -16.607000     12.196000
C         -23.734000    -17.985000      6.972000
C         -19.805000    -16.299000      8.346000
C         -22.133000    -16.353000     12.234000
C         -23.933000    -14.091000      5.948000
C         -20.270000    -16.444000     10.683000
C         -20.857000    -13.072000      7.500000
C         -25.660000    -17.413000      8.190000
C         -23.223000    -14.367000     12.456000
C         -20.564000    -15.296000      6.402000
C         -25.287000    -17.458000     10.695000
C         -22.028000    -12.783000      6.767000
C         -19.700000    -14.245000      9.758000
C         -25.906000    -13.311000      8.681000
C         -25.794000    -13.928000      7.405000
C         -20.336000    -13.016000      9.859000
C         -25.016000    -17.377000      6.982000
C         -22.838000    -16.041000      5.767000
C         -26.271000    -16.135000      8.369000
C         -21.763000    -18.341000      8.158000
C         -20.876000    -14.344000     11.721000
C         -21.857000    -14.995000      5.794000
C         -20.933000    -12.458000      8.719000
C         -25.115000    -18.024000      9.393000
C         -22.339000    -12.457000     11.172000
C         -24.037000    -17.606000     11.357000
C         -24.544000    -12.913000     11.119000
C         -20.100000    -15.051000     10.813000
C         -21.089000    -13.092000     11.097000
C         -21.089000    -18.138000      9.384000
C         -23.189000    -18.527000      8.125000
C         -26.149000    -14.179000      9.788000
C         -21.940000    -15.014000     12.433000
C         -22.845000    -12.023000      7.546000
C         -25.979000    -15.344000      7.234000
C         -24.935000    -12.340000      8.774000
C         -23.855000    -18.592000      9.372000
C         -25.896000    -16.176000     10.836000
$end

--------------------------------------------------------------

             Standard Nuclear Orientation (Angstroms)
    I     Atom           X                Y                Z
 ----------------------------------------------------------------
    1      O       2.3595906689    -8.7971868875     0.0480530876
    2      C       1.5709912195    -9.9228711029     0.4065777811
    3      H       1.7977721394   -10.0636259025     1.4697426323
    4      H       1.7623915704   -10.8347588631    -0.1720893240
    5      H       0.4904109621    -9.7563443414     0.3075568492
    6      O       1.0742240073    -8.0221728739    -1.7495424798
    7      C       2.1408599169    -8.1132744557    -1.1489175234
    8      C       3.3513577441    -7.2655990808    -1.5565527389
    9      H       3.3314387725    -6.9352442648    -2.6021401002
   10      H       4.1911334885    -7.9674350633    -1.4900775342
   11      C       3.6178449410    -6.0896877706    -0.6847481941
   12      H       3.6181561719    -6.4131394416     0.3639829057
   13      H       4.6384089150    -5.7712341772    -0.9272548616
   14      C       2.5398257818    -5.0010056341    -0.8653773667
   15      H       2.5282787123    -4.5275481171    -1.8542502831
   16      H       1.6187558047    -5.5824657920    -0.7302508259
   17      C       2.6627349821    -3.9860463545     0.3104712584
   18      C       2.0939946283    -4.5078677503     1.5890430557
   19      C       2.9055243526    -4.9438297592     2.7166092992
   20      H       3.9801079324    -5.0049437387     2.5722063512
   21      C       2.3822393067    -5.5789680594     3.8856042095
   22      H       3.0401915555    -6.1957784272     4.4905809103
   23      C       0.9920049346    -5.7179506690     3.9530595626
   24      H       0.4926533643    -6.2210929769     4.7756814850
   25      C       0.2389144307    -5.1637920138     2.9333052403
   26      H      -0.8364346809    -5.2906328441     3.0132845633
   27      C       0.7126830733    -4.6700406053     1.7204483568
   28      H       0.0904060735    -4.3451949759     0.8915299938
   29      C       2.0142129937     1.4039082723     1.7788854887
   30      C       4.0020859921     0.6906381977     3.0647765195
   31      C       7.0301142408     3.0975102959     0.6208091245
   32      C       2.6971567039     0.3689012747    -3.1789738683
   33      C       7.9091624009     0.2870648910    -1.2279258370
   34      C       2.6889090996     0.4296648062     2.5291420004
   35      C       5.3850676136     0.5511660029    -3.6460418614
   36      C       4.7232318443     3.7461228071     1.3106826048
   37      C       5.9546187314    -2.1859006406     1.1654202566
   38      C       3.4699520978    -0.8238537196    -3.2017071636
   39      C       3.8443724350    -2.9861508966     0.3104131830
   40      C       6.1375940009    -2.4679200539    -0.2034745900
   41      C       5.4897884460    -1.6342088160    -2.6868977386
   42      C       6.6330102284     0.8840672148    -3.1786779632
   43      C       4.0051368221    -1.4548319822     2.3603005443
   44      C       7.2829975694     2.5760543126    -1.5669819257
   45      C       2.4478021983    -2.4803870359    -0.0289752249
   46      C       2.2369579471    -1.8361479500    -1.3501586724
   47      C       7.9044362656     1.6475973159    -0.8041060825
   48      C       3.3422117201     3.4323621548    -1.8568038860
   49      C       5.3947880420     3.9840037329    -1.0481098698
   50      C       4.4192539128     4.1400602636    -0.0226750732
   51      C       3.8273752068     2.9937772521     2.1430755714
   52      C       1.5051983108    -0.6490298296    -1.2051090157
   53      C       4.6227072602    -2.3488611309     1.4937443515
   54      C       4.5441812401     2.0079143613     2.9184267635
   55      C       4.8096445196    -0.6710669827    -3.4168546198
   56      C       4.7809300908    -0.4398345128     2.9929481093
   57      C       7.0886427273    -1.7486622090    -0.9017592543
   58      C       1.5960196991     1.7776498386    -1.7572921949
   59      C       6.0447554335     3.1949071129     1.6326603393
   60      C       4.8933040898    -2.8400553544    -0.7365373774
   61      C       2.2313890496     3.0752781476     0.2379249763
   62      C       6.7468757043    -1.3463185793    -2.1784925489
   63      C       6.7352724207    -1.1953432212     1.7939374133
   64      C       5.3265262914     2.7304431486    -3.0657548323
   65      C       4.5786911696     1.6866801722    -3.6313584742
   66      C       7.6564813602    -0.4137145013     1.0878130375
   67      C       1.6750000376     0.4187729173    -2.1659933311
   68      C       3.3013163444    -1.8166080449    -2.2695173587
   69      C       2.5320652933     2.5473228697    -2.5132155183
   70      C       1.9825323075    -1.3321050311     0.9117364025
   71      C       6.6919372442     0.9856583966     2.4162934253
   72      C       4.5713241524    -2.3261315478    -1.9672344323
   73      C       7.8239541651    -0.7085236711    -0.3105622386
   74      C       1.5059848822     2.0564872458    -0.3841609440
   75      C       7.7837693619     1.9009214974     0.5418268123
   76      C       2.5355014129     2.7213157857     1.6188954021
   77      C       6.6382852279     3.4351606242    -0.7017343646
   78      C       6.1288497562    -0.2803207139     2.6568872168
   79      C       7.7081243026     0.8938940371     1.4851075337
   80      C       2.7636990097    -0.9065424601     2.0639295641
   81      C       1.4160659347    -0.3213576015     0.1176303125
   82      C       4.6597333960     3.5941107713    -2.2241851845
   83      C       5.9055012748     2.1546796785     2.5002202301
   84      C       7.2695923598    -0.0691556547    -2.3509459105
   85      C       3.2256469339     1.6666966739    -3.3584959517
   86      C       6.6271333600     2.2265339563    -2.8158853084
   87      C       1.4069783128     1.0074584702     0.5460381353
   88      C       3.1389641159     3.8059454076    -0.5272167454
   89      O       1.5957249884     6.3014375287     2.7630770210
   90      C       2.9940554319     6.5136339858     3.0023710545
   91      H       3.5520467086     5.5935621854     2.7919010633
   92      H       3.0675495589     6.8167723631     4.0544450716
   93      H       3.3384001886     7.3048626719     2.3244699889
   94      O       1.5045397277     4.5901527415     4.2989268266
   95      C       0.9824022952     5.3319645310     3.5428939102
   96      C      -0.5713729274     5.4462106701     3.3569117146
   97      H      -0.7272850533     6.5203833693     3.1984206382
   98      H      -1.0560651545     4.9120802849     4.1828264661
   99      C      -0.9954220885     4.7129175866     2.0862533960
  100      H      -0.3544335671     5.0926814655     1.2807702417
  101      H      -0.7611803005     3.6432697708     2.1530166715
  102      C      -2.5422096996     4.8563903303     1.7861573149
  103      H      -3.1531757914     4.4870245534     2.6199164873
  104      H      -2.8423222606     5.9104318961     1.8056464957
  105      C      -2.8797533325     4.1061286441     0.4869707624
  106      C      -2.4482804850     4.9002704457    -0.7828130699
  107      C      -1.1888636521     4.6747036119    -1.3364725722
  108      H      -0.5585938961     3.9198570063    -0.8774707893
  109      C      -0.7880315899     5.2628202886    -2.5698587375
  110      H       0.2289232090     5.0633008108    -2.8925643541
  111      C      -1.7006515705     6.0281026302    -3.2519354990
  112      H      -1.4046897839     6.5015824453    -4.1843787872
  113      C      -3.0267838794     6.2462962640    -2.8004605414
  114      H      -3.7801517831     6.8235177010    -3.3280126378
  115      C      -3.3746071263     5.7342845569    -1.5117200708
  116      H      -4.3977684418     5.8097147786    -1.1569156116
  117      C      -6.5338058259     1.6059104132    -2.5286568958
  118      C      -4.4776194673     0.6411860712    -3.4012482105
  119      C      -4.9712243640    -3.5673224143    -1.6716298904
  120      C      -6.9235059992     1.0032597166     2.5334833544
  121      C      -2.9899594339    -2.8538400758     1.1625298139
  122      C      -5.2442802835     1.7166952539    -2.8741313443
  123      C      -5.5834540223    -1.3872459559     3.1850639934
  124      C      -6.6101765120    -2.0190923546    -2.6881920079
  125      C      -1.7370334037     0.5358218185    -0.4585588959
  126      C      -5.6229321417     1.0767699865     3.0735610168
  127      C      -2.7620925230     2.6047333595     0.4024892081
  128      C      -1.8193023178     0.4488435455     0.9325606553
  129      C      -3.5937691453    -0.0354718421     2.9950775845
  130      C      -4.8233879866    -2.4915169360     2.7194147437
  131      C      -3.1329051164     1.8557241824    -2.0068327449
  132      C      -5.1279506297    -3.7225157598     0.6228593563
  133      C      -4.1207988178     3.2631786871     0.4239590710
  134      C      -5.0799940904     2.7892975924     1.4293282257
  135      C      -3.7460482728    -3.6496505690     0.3155768479
  136      C      -8.3177454109    -1.2616439489     0.2365600103
  137      C      -7.1125977549    -2.9998664597    -0.6103854603
  138      C      -7.5599095079    -2.2095775934    -1.6964336652
  139      C      -6.4363549879    -0.7276539894    -3.2326835383
  140      C      -6.4051029884     2.7442092524     0.9139735421
  141      C      -2.3800103331     1.7625267618    -0.8187819522
  142      C      -5.1061683631    -0.5906745979    -3.5700634274
  143      C      -4.9818688474    -0.1491304704     3.3335608682
  144      C      -3.2050191947     0.6984664095    -2.7900645156
  145      C      -2.0133545266    -0.8784330657     1.4454715029
  146      C      -8.1351478291     1.1808768537     0.6256670036
  147      C      -5.3954603034    -2.6736715715    -2.6988494574
  148      C      -2.4135373907     1.5864252448     1.4897002747
  149      C      -8.1801545246     0.1844090581    -1.7026811941
  150      C      -2.8696340319    -1.1105856526     2.5431698154
  151      C      -1.7251769349    -0.5919631608    -1.3200358049
  152      C      -6.9009259866    -2.5890434874     1.8056661840
  153      C      -6.8404193922    -1.4561651452     2.6625994450
  154      C      -1.8635458621    -1.8539716792    -0.7602800193
  155      C      -7.3535849122     1.8740687272     1.5110711109
  156      C      -4.6806053169     1.8860890352     2.4383470113
  157      C      -8.2438357430    -0.1512665351     1.1278889955
  158      C      -4.9080659384     3.0459727318    -0.8427255993
  159      C      -3.1289408851    -1.7193741885    -2.7358525822
  160      C      -3.3955181173     1.2540974255     2.5179930702
  161      C      -2.0335974740    -1.9730852172     0.6268996426
  162      C      -8.0418133381     1.3021859638    -0.8214431417
  163      C      -3.6829882504    -3.4703819508    -1.1142662191
  164      C      -7.1883839560     0.3507047894    -2.7083575183
  165      C      -5.8648479855    -3.6611032054    -0.5890200870
  166      C      -2.5482698314    -0.4959182908    -2.4317706953
  167      C      -2.7643007277    -2.5565784039    -1.6549383131
  168      C      -4.3959771369     2.5014638141    -2.0426573048
  169      C      -6.2786174338     2.8296631314    -0.4633053109
  170      C      -7.6110674207    -2.4211524765     0.5787049980
  171      C      -4.4587089861    -1.7642738216    -3.2994489098
  172      C      -3.4490158053    -2.3316703235     2.3844279265
  173      C      -7.5134433441    -0.2277603766     2.3361297149
  174      C      -5.6627508845    -3.1900766009     1.8021147271
  175      C      -7.0969165146     2.1373789339    -1.3873827991
  176      C      -8.2799071524    -1.1333431025    -1.1661509930
 ----------------------------------------------------------------

    9   -5804.2636614423      8.91E-06 Convergence criterion met
 Total energy in the final basis set = -5804.2636614423

                    Orbital Energies (a.u.)
 --------------------------------------------------------------

 Alpha MOs
 -- Occupied --
-19.196 -19.184 -19.145 -19.140 -10.325 -10.312 -10.248 -10.247
-10.244 -10.242 -10.242 -10.241 -10.237 -10.236 -10.231 -10.229
-10.228 -10.228 -10.228 -10.227 -10.226 -10.225 -10.225 -10.225
-10.224 -10.223 -10.223 -10.223 -10.222 -10.222 -10.221 -10.221
-10.221 -10.221 -10.221 -10.220 -10.220 -10.220 -10.220 -10.220
-10.220 -10.220 -10.220 -10.219 -10.219 -10.218 -10.218 -10.218
-10.217 -10.217 -10.217 -10.217 -10.217 -10.217 -10.217 -10.217
-10.217 -10.216 -10.216 -10.216 -10.216 -10.216 -10.215 -10.215
-10.215 -10.215 -10.215 -10.215 -10.215 -10.215 -10.215 -10.215
-10.215 -10.215 -10.214 -10.214 -10.214 -10.214 -10.214 -10.214
-10.214 -10.214 -10.213 -10.213 -10.213 -10.213 -10.213 -10.212
-10.212 -10.212 -10.212 -10.212 -10.212 -10.211 -10.211 -10.211
-10.211 -10.211 -10.211 -10.211 -10.211 -10.211 -10.210 -10.210
-10.210 -10.210 -10.210 -10.210 -10.209 -10.209 -10.209 -10.209
-10.209 -10.208 -10.208 -10.208 -10.208 -10.207 -10.207 -10.207
-10.207 -10.207 -10.206 -10.206 -10.206 -10.206 -10.206 -10.205
-10.204 -10.204 -10.204 -10.204 -10.203 -10.203 -10.203 -10.202
-10.202 -10.202 -10.202 -10.198 -10.198 -10.198 -10.197 -10.196
-10.195 -10.194 -10.194 -10.193  -1.093  -1.088  -1.023  -1.015
 -0.988  -0.980  -0.968  -0.966  -0.963  -0.962  -0.961  -0.958
 -0.932  -0.931  -0.930  -0.927  -0.925  -0.925  -0.924  -0.924
 -0.920  -0.916  -0.897  -0.893  -0.890  -0.889  -0.888  -0.881
 -0.875  -0.870  -0.852  -0.847  -0.845  -0.841  -0.839  -0.837
 -0.837  -0.834  -0.826  -0.816  -0.813  -0.801  -0.801  -0.798
 -0.796  -0.796  -0.794  -0.792  -0.791  -0.787  -0.785  -0.783
 -0.775  -0.771  -0.768  -0.767  -0.766  -0.765  -0.764  -0.757
 -0.747  -0.743  -0.740  -0.736  -0.733  -0.727  -0.716  -0.716
 -0.715  -0.714  -0.712  -0.712  -0.711  -0.710  -0.709  -0.709
 -0.708  -0.707  -0.705  -0.705  -0.702  -0.696  -0.674  -0.668
 -0.660  -0.657  -0.657  -0.654  -0.650  -0.641  -0.633  -0.627
 -0.627  -0.626  -0.625  -0.624  -0.623  -0.618  -0.617  -0.616
 -0.615  -0.615  -0.614  -0.612  -0.610  -0.609  -0.608  -0.606
 -0.605  -0.604  -0.602  -0.600  -0.571  -0.566  -0.564  -0.563
 -0.559  -0.559  -0.557  -0.557  -0.556  -0.555  -0.554  -0.549
 -0.536  -0.534  -0.531  -0.530  -0.529  -0.528  -0.525  -0.524
 -0.523  -0.522  -0.520  -0.518  -0.517  -0.516  -0.514  -0.512
 -0.510  -0.506  -0.502  -0.492  -0.492  -0.490  -0.488  -0.486
 -0.482  -0.482  -0.481  -0.481  -0.478  -0.477  -0.477  -0.476
 -0.474  -0.473  -0.472  -0.471  -0.469  -0.468  -0.467  -0.465
 -0.464  -0.463  -0.462  -0.462  -0.461  -0.460  -0.459  -0.455
 -0.454  -0.454  -0.451  -0.450  -0.450  -0.448  -0.446  -0.442
 -0.442  -0.441  -0.441  -0.439  -0.437  -0.435  -0.434  -0.432
 -0.431  -0.430  -0.428  -0.428  -0.426  -0.426  -0.425  -0.424
 -0.423  -0.423  -0.421  -0.420  -0.419  -0.418  -0.417  -0.417
 -0.416  -0.415  -0.415  -0.414  -0.414  -0.413  -0.412  -0.412
 -0.411  -0.411  -0.408  -0.407  -0.403  -0.401  -0.399  -0.396
 -0.395  -0.392  -0.391  -0.390  -0.389  -0.388  -0.387  -0.385
 -0.383  -0.379  -0.375  -0.370  -0.369  -0.369  -0.367  -0.366
 -0.364  -0.363  -0.362  -0.362  -0.360  -0.358  -0.357  -0.356
 -0.355  -0.355  -0.354  -0.353  -0.353  -0.352  -0.351  -0.350
 -0.349  -0.349  -0.348  -0.348  -0.346  -0.346  -0.345  -0.344
 -0.343  -0.342  -0.340  -0.339  -0.338  -0.337  -0.337  -0.334
 -0.333  -0.332  -0.331  -0.328  -0.328  -0.326  -0.325  -0.323
 -0.312  -0.310  -0.299  -0.297  -0.288  -0.283  -0.272  -0.270
 -0.270  -0.269  -0.268  -0.268  -0.266  -0.265  -0.264  -0.264
 -0.262  -0.261  -0.260  -0.258  -0.256  -0.255  -0.254  -0.250
 -0.249  -0.246  -0.244  -0.242  -0.222  -0.218  -0.214  -0.213
 -0.211  -0.209  -0.205  -0.204  -0.200  -0.196

          Ground-State Mulliken Net Atomic Charges

     Atom                 Charge (a.u.)
  ----------------------------------------
      1 O                    -0.467800
      2 C                    -0.085320
      3 H                     0.125832
      4 H                     0.120672
      5 H                     0.131560
      6 O                    -0.454694
      7 C                     0.579215
      8 C                    -0.230022
      9 H                     0.126852
     10 H                     0.114759
     11 C                    -0.191896
     12 H                     0.124327
     13 H                     0.106620
     14 C                    -0.190266
     15 H                     0.112492
     16 H                     0.133180
     17 C                     0.011082
     18 C                     0.092373
     19 C                    -0.121806
     20 H                     0.085397
     21 C                    -0.097916
     22 H                     0.098042
     23 C                    -0.075407
     24 H                     0.094051
     25 C                    -0.094915
     26 H                     0.084471
     27 C                    -0.092839
     28 H                     0.103133
     29 C                    -0.016805
     30 C                     0.002963
     31 C                    -0.035670
     32 C                    -0.021489
     33 C                     0.007729
     34 C                    -0.002215
     35 C                     0.031459
     36 C                    -0.004917
     37 C                     0.018508
     38 C                    -0.013674
     39 C                    -0.080306
     40 C                     0.006723
     41 C                    -0.010744
     42 C                    -0.002230
     43 C                     0.008713
     44 C                    -0.008660
     45 C                    -0.102648
     46 C                     0.002839
     47 C                     0.008635
     48 C                     0.047331
     49 C                    -0.009222
     50 C                    -0.020979
     51 C                     0.005962
     52 C                     0.016014
     53 C                     0.018896
     54 C                    -0.008699
     55 C                     0.003573
     56 C                    -0.011608
     57 C                    -0.015581
     58 C                    -0.018147
     59 C                    -0.016176
     60 C                     0.028869
     61 C                    -0.009045
     62 C                    -0.015563
     63 C                    -0.006371
     64 C                    -0.012136
     65 C                    -0.014602
     66 C                    -0.003437
     67 C                    -0.011301
     68 C                     0.025170
     69 C                    -0.036163
     70 C                     0.020750
     71 C                     0.016169
     72 C                     0.008530
     73 C                    -0.012503
     74 C                     0.019844
     75 C                     0.026141
     76 C                    -0.006237
     77 C                     0.026346
     78 C                     0.001127
     79 C                    -0.013871
     80 C                     0.005010
     81 C                     0.036548
     82 C                     0.004157
     83 C                     0.015357
     84 C                     0.011723
     85 C                     0.021433
     86 C                    -0.018311
     87 C                     0.004294
     88 C                    -0.003872
     89 O                    -0.479078
     90 C                    -0.085796
     91 H                     0.127852
     92 H                     0.121568
     93 H                     0.120545
     94 O                    -0.442462
     95 C                     0.582015
     96 C                    -0.235181
     97 H                     0.125002
     98 H                     0.125684
     99 C                    -0.205275
    100 H                     0.124599
    101 H                     0.116027
    102 C                    -0.186969
    103 H                     0.104949
    104 H                     0.114116
    105 C                     0.016533
    106 C                     0.089512
    107 C                    -0.114965
    108 H                     0.093154
    109 C                    -0.081768
    110 H                     0.097283
    111 C                    -0.090407
    112 H                     0.086356
    113 C                    -0.083964
    114 H                     0.096959
    115 C                    -0.122715
    116 H                     0.089320
    117 C                     0.030438
    118 C                    -0.008490
    119 C                    -0.015210
    120 C                     0.011202
    121 C                     0.009097
    122 C                    -0.000811
    123 C                     0.018733
    124 C                     0.013070
    125 C                     0.015554
    126 C                    -0.030226
    127 C                    -0.050622
    128 C                     0.025413
    129 C                     0.020619
    130 C                    -0.031151
    131 C                    -0.011667
    132 C                     0.008841
    133 C                    -0.098594
    134 C                     0.019888
    135 C                    -0.027682
    136 C                     0.017814
    137 C                    -0.002486
    138 C                    -0.016449
    139 C                     0.003359
    140 C                     0.001390
    141 C                     0.024681
    142 C                     0.021969
    143 C                     0.006420
    144 C                     0.003442
    145 C                    -0.003446
    146 C                     0.009979
    147 C                     0.012860
    148 C                    -0.012973
    149 C                    -0.028393
    150 C                    -0.005557
    151 C                    -0.000348
    152 C                    -0.011734
    153 C                    -0.017398
    154 C                    -0.031900
    155 C                    -0.027173
    156 C                     0.008345
    157 C                    -0.026867
    158 C                     0.036164
    159 C                    -0.007711
    160 C                    -0.010406
    161 C                     0.026801
    162 C                     0.005526
    163 C                     0.001987
    164 C                    -0.021064
    165 C                     0.007253
    166 C                     0.019378
    167 C                    -0.003484
    168 C                    -0.004198
    169 C                     0.006940
    170 C                    -0.001530
    171 C                    -0.031931
    172 C                    -0.003674
    173 C                     0.018993
    174 C                     0.014541
    175 C                    -0.009203
    176 C                    -0.000024
  ----------------------------------------
  Sum of atomic charges =     0.000000

                    Cartesian Multipole Moments
 -----------------------------------------------------------------
    Charge (ESU x 10^10)
                 0.0000
    Dipole Moment (Debye)
         X       2.1222      Y      -0.9883      Z       0.3723
       Tot       2.3705
    Quadrupole Moments (Debye-Ang)
        XX    -813.6280     XY     -23.5827     YY    -753.8678
        XZ      -3.9452     YZ     -17.9566     ZZ    -814.8085

 Total job time:  900.28s(wall), 8602.65s(cpu)
        *  Thank you very much for using Q-Chem.  Have a nice day.  *
