 Q-Chem 4.4, Q-Chem, Inc., Pleasanton, CA (2016)
 Q-Chem 4.4.2 for Intel X86 Linux

User input:
--------------------------------------------------------------
$comment
SP
$end

$rem
MEM_STATIC 5000
MEM_TOTAL 20000
JOBTYPE SP
EXCHANGE B3LYP
BASIS 6-31g(d,p)
$end

$molecule
0 1
O          11.923000     -6.045000      9.159000
C          10.729000     -5.553000      8.449000
H          11.088000     -4.767000      7.774000
H           9.946000     -5.157000      9.107000
H          10.262000     -6.381000      7.900000
O          11.410000     -8.241000      9.164000
C          12.195000     -7.367000      9.403000
C          13.537000     -7.694000     10.061000
H          13.585000     -8.764000     10.297000
H          13.476000     -7.188000     11.032000
C          14.700000     -7.216000      9.276000
H          14.687000     -7.787000      8.340000
H          14.632000     -6.163000      8.974000
C          16.053000     -7.393000      9.862000
H          16.206000     -6.595000     10.599000
H          16.107000     -8.304000     10.469000
C          17.151000     -7.322000      8.690000
C          17.423000     -8.669000      8.061000
C          18.260000     -9.568000      8.738000
H          18.487000     -9.461000      9.795000
C          18.805000    -10.713000      8.080000
H          19.472000    -11.384000      8.612000
C          18.567000    -10.840000      6.732000
H          19.062000    -11.612000      6.150000
C          17.640000     -9.977000      6.040000
H          17.450000    -10.184000      4.991000
C          17.115000     -8.914000      6.768000
H          16.421000     -8.207000      6.323000
C          22.174000     -5.810000      7.861000
C          21.228000     -5.398000      5.695000
C          21.206000     -0.900000      5.852000
C          19.625000     -3.418000     11.566000
C          17.766000     -0.636000      6.842000
C          21.316000     -6.149000      6.845000
C          18.446000     -1.060000     10.351000
C          22.832000     -2.501000      6.572000
C          17.321000     -4.572000      6.025000
C          18.286000     -3.369000     11.105000
C          17.305000     -5.999000      7.935000
C          16.628000     -3.908000      7.037000
C          16.831000     -2.584000      9.572000
C          18.358000     -0.340000      9.164000
C          19.152000     -6.098000      6.232000
C          20.007000      0.099000      7.437000
C          18.257000     -6.396000      8.941000
C          18.475000     -5.639000     10.200000
C          19.102000     -0.232000      6.430000
C          22.405000     -1.889000      9.974000
C          22.216000     -0.735000      8.089000
C          23.017000     -1.833000      7.799000
C          22.803000     -3.879000      6.519000
C          19.868000     -5.642000     10.556000
C          17.803000     -5.761000      6.540000
C          22.001000     -4.283000      5.477000
C          17.725000     -2.241000     10.532000
C          19.877000     -5.375000      5.301000
C          16.688000     -2.513000      7.155000
C          21.701000     -4.028000     10.951000
C          21.982000     -2.023000      5.551000
C          16.551000     -4.729000      8.231000
C          23.173000     -3.962000      8.926000
C          16.687000     -1.871000      8.421000
C          18.033000     -3.812000      5.130000
C          20.489000     -0.413000      9.764000
C          19.773000     -1.140000     10.697000
C          18.001000     -2.412000      5.204000
C          20.416000     -4.515000     11.248000
C          17.689000     -4.479000     10.429000
C          21.690000     -2.631000     10.928000
C          19.684000     -6.734000      8.503000
C          20.068000     -3.038000      4.536000
C          16.833000     -3.996000      9.448000
C          17.243000     -1.765000      6.196000
C          22.429000     -4.668000      9.880000
C          19.839000     -0.912000      5.479000
C          22.949000     -4.622000      7.689000
C          21.321000     -0.274000      7.089000
C          19.315000     -4.191000      4.728000
C          19.249000     -1.961000      4.849000
C          20.047000     -6.580000      7.143000
C          20.575000     -6.244000      9.526000
C          21.760000     -0.814000      9.378000
C          21.412000     -3.122000      4.938000
C          17.389000     -0.681000      8.210000
C          20.399000     -2.256000     11.313000
C          19.591000      0.132000      8.768000
C          21.810000     -5.780000      9.183000
C          23.170000     -2.572000      8.965000
O          14.185000      9.506000     12.054000
C          14.907000     10.674000     12.564000
H          15.980000     10.525000     12.390000
H          14.626000     10.744000     13.622000
H          14.497000     11.577000     12.096000
O          15.396000      7.827000     13.137000
C          14.456000      8.205000     12.398000
C          13.443000      7.330000     11.879000
H          13.789000      6.314000     12.109000
H          13.322000      7.449000     10.795000
C          12.075000      7.564000     12.531000
H          12.120000      8.002000     13.535000
H          11.525000      8.277000     11.904000
C          11.394000      6.188000     12.685000
H          12.019000      5.624000     13.389000
H          10.433000      6.360000     13.186000
C          11.101000      5.394000     11.451000
C          10.646000      6.201000     10.299000
C          11.397000      6.457000      9.143000
H          12.408000      6.072000      9.038000
C          10.958000      7.319000      8.180000
H          11.571000      7.610000      7.332000
C           9.678000      7.874000      8.274000
H           9.269000      8.498000      7.485000
C           8.949000      7.585000      9.338000
H           7.882000      7.780000      9.387000
C           9.348000      6.658000     10.349000
H           8.608000      6.350000     11.081000
C           8.542000      0.913000      9.435000
C          10.550000      1.061000      8.063000
C          12.606000     -2.467000      9.978000
C           9.740000      1.010000     14.357000
C          14.623000     -0.518000     12.029000
C           9.496000      1.702000      8.737000
C          12.223000     -0.239000     14.737000
C          10.293000     -2.169000      9.383000
C          13.543000      2.744000     10.057000
C          10.937000      1.804000     14.585000
C          11.909000      4.174000     11.221000
C          13.883000      2.789000     11.444000
C          13.121000      1.905000     13.971000
C          13.271000     -0.859000     14.047000
C          11.435000      2.947000      8.978000
C          13.115000     -2.441000     12.213000
C          10.435000      4.004000     11.572000
C          10.151000      3.321000     12.808000
C          14.111000     -1.690000     11.519000
C           9.171000     -1.921000     12.642000
C          10.850000     -2.947000     11.552000
C           9.830000     -2.621000     10.645000
C           9.592000     -1.136000      8.719000
C           9.041000      2.520000     12.595000
C          12.334000      3.518000      9.898000
C          10.569000     -0.374000      8.037000
C          12.165000      1.210000     14.664000
C          11.680000      1.822000      8.173000
C          14.598000      1.731000     11.999000
C           8.169000      0.301000     12.842000
C          11.643000     -2.144000      8.995000
C          12.886000      3.496000     12.121000
C           8.191000     -0.891000     10.695000
C          14.217000      1.286000     13.315000
C          13.818000      1.643000      9.270000
C          11.332000     -2.088000     13.782000
C          11.059000     -1.019000     14.623000
C          14.475000      0.579000      9.847000
C           8.797000      1.410000     13.393000
C          11.091000      2.915000     13.732000
C           8.850000     -0.806000     13.422000
C           9.562000      3.372000     10.573000
C          12.979000     -0.195000      8.355000
C          12.454000      2.948000     13.359000
C          14.898000      0.643000     11.212000
C           7.846000      0.240000     11.489000
C          13.776000     -1.736000     10.164000
C           8.665000     -0.472000      9.449000
C          12.210000     -2.874000     11.261000
C          12.927000      1.194000      8.293000
C          13.947000     -0.582000      9.312000
C          10.042000      2.933000      9.274000
C           8.615000      2.540000     11.236000
C          10.413000     -2.499000     12.792000
C          11.807000     -1.012000      8.126000
C          14.243000     -0.111000     13.326000
C           9.759000     -0.331000     14.437000
C          12.709000     -2.029000     13.473000
C           8.084000      1.358000     10.704000
C           8.817000     -1.982000     11.305000
$end

--------------------------------------------------------------

             Standard Nuclear Orientation (Angstroms)
    I     Atom           X                Y                Z
 ----------------------------------------------------------------
    1      O       1.2817889945    -5.6847080732    -0.8579983759
    2      C       0.3457118868    -6.0633376993    -1.9314038234
    3      H       0.2489039928    -5.1755114906    -2.5675601365
    4      H      -0.6414317926    -6.3821431768    -1.5753428402
    5      H       0.7504731604    -6.9204418493    -2.4851319043
    6      O       2.4247249319    -7.6246136169    -0.7312153933
    7      C       2.2927689888    -6.4835700818    -0.3879526949
    8      C       3.2317614054    -5.8789752670     0.6578079620
    9      H       3.9226646391    -6.6470121546     1.0261448471
   10      H       2.5674872400    -5.6609643409     1.5026801826
   11      C       3.9187702066    -4.6546199600     0.1821494820
   12      H       4.5671148411    -4.9739324859    -0.6424684572
   13      H       3.2449009220    -3.9052485561    -0.2525684569
   14      C       4.7840854797    -3.9260031594     1.1442726737
   15      H       4.1334815800    -3.3251067492     1.7915902694
   16      H       5.2642859257    -4.6156466470     1.8478957203
   17      C       5.8149209968    -2.9980228685     0.3315859466
   18      C       7.0942076380    -3.7189354582    -0.0258279976
   19      C       8.0749703083    -3.8744508356     0.9646358090
   20      H       7.8513432212    -3.7587078105     2.0214335560
   21      C       9.4098599901    -4.2600263248     0.6323481632
   22      H      10.1627546914    -4.3502525818     1.4089837221
   23      C       9.7234134295    -4.3657235330    -0.7019641469
   24      H      10.7494205891    -4.5236277800    -1.0215084431
   25      C       8.7106210058    -4.2959048585    -1.7277998351
   26      H       9.0248261404    -4.4597418825    -2.7543389541
   27      C       7.4247571898    -3.9637868423    -1.3132761688
   28      H       6.6041383249    -3.8754503701    -2.0191737154
   29      C       8.4197720917     1.6081167866     0.7811882724
   30      C       8.1246919338     1.5006189133    -1.5973801852
   31      C       5.0109266835     4.7252290856    -2.0017218768
   32      C       4.0075060438     1.1968487934     3.2929320811
   33      C       2.2231983547     2.4651797593    -2.0660942887
   34      C       8.3629044529     0.8902337948    -0.3870373401
   35      C       1.9601152603     2.2351081283     1.5162389356
   36      C       6.9888141619     4.5939123702    -0.6615002372
   37      C       4.8300061924    -0.5978655590    -2.4902596760
   38      C       3.2025592616     0.3713306284     2.4692674424
   39      C       5.2381107273    -1.8521530369    -0.5040827928
   40      C       3.6197896779    -0.7002884714    -1.8045669349
   41      C       2.1282154953     0.1176895861     0.5033603506
   42      C       1.7536009245     2.8271179953     0.2744703797
   43      C       7.0431302880    -0.4788511238    -1.5891474180
   44      C       3.0665449868     4.4577925104    -0.9549723863
   45      C       5.8610204265    -1.6020806482     0.7708275206
   46      C       5.1318722878    -1.0440455352     1.9381294543
   47      C       2.9699098311     3.7127097785    -2.1289180278
   48      C       5.3054912399     4.3719980840     2.3794954862
   49      C       4.9370666235     5.2862805151     0.3922831326
   50      C       6.3070119023     5.0685565486     0.4768479444
   51      C       7.9200136414     3.5822302091    -0.5524097503
   52      C       5.9722919441    -0.1368992958     2.6715969053
   53      C       5.8145123391    -1.1872549168    -1.7191320394
   54      C       7.9525841146     2.8582734769    -1.7216016995
   55      C       2.2228052405     0.8691424406     1.6280186932
   56      C       7.3100023704     0.6407325806    -2.3575396488
   57      C       2.6792738785     0.3376590453    -1.8451130036
   58      C       6.0008866617     2.2363699490     3.3699416868
   59      C       6.3841256506     4.4735912723    -1.9316575652
   60      C       3.7814119600    -1.4785472213    -0.5905662941
   61      C       7.5333037211     3.5092353807     1.8522867363
   62      C       1.8782650979     0.6625399622    -0.7191652591
   63      C       5.0526139774     0.5356961989    -3.2325887912
   64      C       3.0697644208     4.1592341614     1.4575469499
   65      C       2.8111110285     3.0426621886     2.2308770554
   66      C       4.0592315514     1.5194627658    -3.3416516057
   67      C       5.3780792332     0.9761206222     3.3479066837
   68      C       3.7475281886    -0.7645043662     1.7922351435
   69      C       5.0516509869     3.2429354583     3.1749121776
   70      C       7.1804274428    -0.8269879460     0.7993481848
   71      C       6.0726542867     2.5471020396    -3.3156629213
   72      C       3.1238767013    -0.8896914582     0.5578231320
   73      C       2.8224113654     1.3626729692    -2.6913210842
   74      C       7.2354354822     2.3864932873     2.6351102822
   75      C       4.2031460072     3.8267954950    -2.7421740780
   76      C       8.1862119482     3.0149290844     0.6924086683
   77      C       4.3074792682     5.1206994445    -0.8685692264
   78      C       6.2915543479     1.1784113778    -3.2058875353
   79      C       4.6981865977     2.7348338794    -3.3808881329
   80      C       7.7125974394    -0.3186833521    -0.4104065567
   81      C       7.1550546375     0.0219288822     1.9651982779
   82      C       4.3116045745     4.7767695806     1.4990323512
   83      C       6.9217257493     3.3571736851    -2.5424504146
   84      C       1.6052687259     2.0253859908    -0.8659599566
   85      C       3.8142416056     2.5930663569     3.1299769572
   86      C       2.3799713300     4.0519921287     0.1894264358
   87      C       7.7729485876     1.2365409676     1.9321143193
   88      C       6.5763741962     4.5093580647     1.7193562986
   89      O      -8.5814711309     6.7969583704     0.6437913863
   90      C      -9.0335967598     8.0781653110     1.1912392751
   91      H      -8.1576095188     8.7200237972     1.3476682916
   92      H      -9.5755108745     7.8211129650     2.1096499587
   93      H      -9.7888368155     8.5043241702     0.5200209165
   94      O      -6.9354393554     6.2866539300     2.2213273675
   95      C      -7.6142132298     6.0016184989     1.2061299333
   96      C      -7.5549653137     4.7354135631     0.5320603930
   97      H      -6.6977172624     4.2100433447     0.9724964408
   98      H      -7.4054014976     4.8584557477    -0.5479161279
   99      C      -8.8255259852     3.9016452891     0.7364865294
  100      H      -9.3815397416     4.1389635995     1.6510431008
  101      H      -9.5005590672     4.1123995014    -0.1025075112
  102      C      -8.3956594816     2.4246925535     0.8576410000
  103      H      -7.7932937581     2.3644199431     1.7729877908
  104      H      -9.3057556251     1.8397700055     1.0412073978
  105      C      -7.6992466198     1.7860491278    -0.3026109988
  106      C      -8.2227848013     2.1873136212    -1.6255896755
  107      C      -7.5565269828     3.0112156943    -2.5438265149
  108      H      -6.5820601848     3.4323866511    -2.3105874003
  109      C      -8.1610104800     3.4424037435    -3.6891695063
  110      H      -7.7003959091     4.1637972361    -4.3577348702
  111      C      -9.4294146562     2.9623740125    -4.0297327209
  112      H      -9.9021503951     3.2225162120    -4.9720834822
  113      C     -10.0319226863     2.1396795771    -3.1887714022
  114      H     -10.8990997634     1.5489666782    -3.4680153603
  115      C      -9.4241467539     1.6289100514    -2.0011797604
  116      H      -9.9256035582     0.8214964955    -1.4768588442
  117      C      -5.8051075788    -2.9791074468    -2.3996608583
  118      C      -4.1543267136    -1.3537543043    -3.1543142209
  119      C      -0.9217949535    -2.7190465420    -0.3209662851
  120      C      -6.4788247648    -2.6346994759     2.6101480505
  121      C      -1.4731110149    -0.1601294818     1.9640906244
  122      C      -5.4954495796    -1.6814458038    -2.8895865506
  123      C      -4.0631825021    -1.8902083406     3.8267397683
  124      C      -2.5150794201    -4.0127201729    -1.5782057790
  125      C      -3.8494245535     1.6833854619    -0.6147491571
  126      C      -6.2750243521    -1.2698423777     3.0693424466
  127      C      -6.2590209756     1.4781535208    -0.1441357987
  128      C      -4.0496420438     1.7948693580     0.7955268079
  129      C      -4.6916852439     0.3579187058     3.0913452572
  130      C      -2.7357628297    -1.5496363698     3.5425360629
  131      C      -5.1004078955     0.5137604994    -2.2628183683
  132      C      -1.2391022268    -2.5995492118     1.9461946008
  133      C      -7.2402434197     0.3128036502    -0.2068987993
  134      C      -7.3242154856    -0.5110998703     0.9716480521
  135      C      -0.8764294308    -1.3012446987     1.4765917536
  136      C      -4.3795363515    -4.9556844098     1.1742636212
  137      C      -2.2351267831    -4.4354299821     0.7376173875
  138      C      -2.8842654208    -4.7941045655    -0.4537249530
  139      C      -3.4986992533    -3.6690080726    -2.5341032714
  140      C      -7.4688196040    -1.8234379308     0.5522097803
  141      C      -5.1457150172     1.4381065976    -1.2025478578
  142      C      -3.1597823286    -2.3769960975    -2.9990090409
  143      C      -5.0650715061    -0.8724920932     3.5645069263
  144      C      -3.9394044790    -0.0454286152    -2.8223302994
  145      C      -3.0082128397     1.4545806997     1.6547374001
  146      C      -6.6224194107    -4.0510643233     0.8103596750
  147      C      -1.5085171893    -3.0327204631    -1.5681040839
  148      C      -5.3979366810     1.5534473879     1.0712150442
  149      C      -5.1801926671    -4.6629532053    -1.0808121882
  150      C      -3.3423123224     0.7281568937     2.8529560737
  151      C      -2.6896340501     1.1600204315    -1.1515638673
  152      C      -3.1347574350    -3.7306169829     2.8909887735
  153      C      -4.2870186176    -3.2350016876     3.4836359252
  154      C      -1.6896401132     0.7734749003    -0.2871168310
  155      C      -7.1097839749    -2.8810926170     1.3773764190
  156      C      -6.6796932683    -0.2666928615     2.1662477029
  157      C      -5.5778860083    -4.4527334209     1.6896900494
  158      C      -7.1132181641    -0.6293154844    -1.3275370641
  159      C      -1.7450704256    -0.6414178651    -2.0358769469
  160      C      -5.6741001241     0.7263006774     2.1933264789
  161      C      -1.8403623209     0.9576509511     1.1234192367
  162      C      -6.4096456556    -4.1662989327    -0.5608103779
  163      C      -0.6813685900    -1.4135689632     0.0982955126
  164      C      -4.7857794850    -3.8997336393    -2.1829406453
  165      C      -1.2823236049    -3.4245383440     0.8369863948
  166      C      -2.7053395317     0.3357293298    -2.2786435084
  167      C      -1.1040359213    -0.3678192725    -0.8042680096
  168      C      -6.1169950359    -0.4774307147    -2.3739559552
  169      C      -7.3788789257    -1.9494949922    -0.8636918024
  170      C      -3.1914306178    -4.5450282034     1.7389885503
  171      C      -1.9160824159    -2.0057961516    -2.4861444123
  172      C      -2.3794904308    -0.2668748962     3.0408170385
  173      C      -5.5786143481    -3.6015413239     2.8548520482
  174      C      -2.1557851547    -2.7163066596     2.9797516181
  175      C      -6.7819077512    -3.1083673786    -1.3762824859
  176      C      -4.1923072845    -5.0937871594    -0.1904630573
 ----------------------------------------------------------------

    9   -5804.2211760049      9.50E-06 Convergence criterion met
 Total energy in the final basis set = -5804.2211760049

                    Orbital Energies (a.u.)
 --------------------------------------------------------------

 Alpha MOs
 -- Occupied --
-19.187 -19.180 -19.129 -19.123 -10.313 -10.308 -10.252 -10.246
-10.242 -10.241 -10.238 -10.238 -10.235 -10.234 -10.232 -10.228
-10.228 -10.227 -10.226 -10.226 -10.225 -10.224 -10.224 -10.223
-10.223 -10.222 -10.221 -10.221 -10.220 -10.220 -10.219 -10.219
-10.219 -10.219 -10.219 -10.218 -10.218 -10.218 -10.218 -10.217
-10.217 -10.217 -10.217 -10.217 -10.217 -10.217 -10.217 -10.217
-10.217 -10.216 -10.216 -10.216 -10.216 -10.216 -10.216 -10.215
-10.215 -10.215 -10.215 -10.215 -10.215 -10.215 -10.214 -10.214
-10.214 -10.214 -10.214 -10.214 -10.214 -10.213 -10.213 -10.213
-10.213 -10.213 -10.213 -10.213 -10.212 -10.212 -10.212 -10.212
-10.212 -10.212 -10.212 -10.212 -10.212 -10.211 -10.211 -10.211
-10.211 -10.211 -10.211 -10.211 -10.211 -10.211 -10.211 -10.210
-10.210 -10.210 -10.210 -10.210 -10.210 -10.210 -10.209 -10.209
-10.209 -10.209 -10.209 -10.209 -10.209 -10.209 -10.208 -10.208
-10.208 -10.208 -10.208 -10.208 -10.207 -10.207 -10.207 -10.207
-10.206 -10.206 -10.206 -10.205 -10.205 -10.205 -10.204 -10.204
-10.204 -10.204 -10.204 -10.203 -10.203 -10.202 -10.202 -10.202
-10.200 -10.200 -10.199 -10.198 -10.197 -10.197 -10.196 -10.195
-10.195 -10.194 -10.191 -10.182  -1.080  -1.076  -1.001  -0.991
 -0.987  -0.985  -0.969  -0.969  -0.967  -0.964  -0.964  -0.962
 -0.940  -0.940  -0.931  -0.928  -0.928  -0.926  -0.925  -0.924
 -0.922  -0.922  -0.901  -0.900  -0.893  -0.892  -0.888  -0.884
 -0.882  -0.875  -0.865  -0.856  -0.844  -0.842  -0.840  -0.838
 -0.838  -0.837  -0.829  -0.821  -0.815  -0.811  -0.799  -0.799
 -0.798  -0.797  -0.795  -0.793  -0.793  -0.793  -0.789  -0.784
 -0.774  -0.773  -0.772  -0.770  -0.769  -0.766  -0.766  -0.763
 -0.759  -0.753  -0.748  -0.738  -0.734  -0.731  -0.719  -0.716
 -0.715  -0.714  -0.714  -0.714  -0.713  -0.712  -0.712  -0.711
 -0.708  -0.707  -0.707  -0.706  -0.704  -0.700  -0.674  -0.673
 -0.660  -0.660  -0.659  -0.659  -0.652  -0.646  -0.632  -0.631
 -0.630  -0.628  -0.627  -0.627  -0.623  -0.623  -0.619  -0.618
 -0.616  -0.616  -0.616  -0.614  -0.613  -0.612  -0.610  -0.609
 -0.607  -0.606  -0.604  -0.598  -0.570  -0.565  -0.565  -0.563
 -0.562  -0.560  -0.559  -0.558  -0.557  -0.557  -0.555  -0.553
 -0.541  -0.537  -0.537  -0.530  -0.529  -0.527  -0.526  -0.524
 -0.524  -0.522  -0.520  -0.519  -0.519  -0.518  -0.518  -0.515
 -0.512  -0.506  -0.502  -0.496  -0.494  -0.491  -0.489  -0.486
 -0.485  -0.484  -0.482  -0.480  -0.480  -0.480  -0.476  -0.475
 -0.473  -0.472  -0.471  -0.469  -0.469  -0.469  -0.468  -0.466
 -0.465  -0.465  -0.464  -0.463  -0.462  -0.461  -0.460  -0.457
 -0.456  -0.456  -0.453  -0.452  -0.450  -0.447  -0.446  -0.444
 -0.444  -0.442  -0.441  -0.441  -0.440  -0.438  -0.434  -0.433
 -0.432  -0.431  -0.431  -0.429  -0.427  -0.426  -0.425  -0.425
 -0.424  -0.423  -0.422  -0.422  -0.421  -0.420  -0.419  -0.419
 -0.418  -0.418  -0.417  -0.416  -0.415  -0.414  -0.414  -0.413
 -0.412  -0.412  -0.410  -0.409  -0.401  -0.401  -0.397  -0.396
 -0.394  -0.394  -0.392  -0.389  -0.389  -0.388  -0.387  -0.382
 -0.381  -0.380  -0.379  -0.376  -0.372  -0.370  -0.369  -0.368
 -0.367  -0.366  -0.363  -0.362  -0.361  -0.359  -0.359  -0.358
 -0.357  -0.356  -0.356  -0.354  -0.353  -0.353  -0.351  -0.351
 -0.350  -0.349  -0.348  -0.348  -0.346  -0.345  -0.345  -0.342
 -0.341  -0.340  -0.340  -0.339  -0.338  -0.338  -0.336  -0.336
 -0.333  -0.332  -0.330  -0.329  -0.327  -0.325  -0.324  -0.318
 -0.312  -0.307  -0.293  -0.290  -0.289  -0.287  -0.273  -0.272
 -0.271  -0.270  -0.268  -0.267  -0.266  -0.265  -0.264  -0.262
 -0.261  -0.261  -0.260  -0.260  -0.258  -0.256  -0.256  -0.255
 -0.253  -0.245  -0.243  -0.241  -0.220  -0.218  -0.215  -0.213
 -0.209  -0.208  -0.206  -0.205  -0.200  -0.196

          Ground-State Mulliken Net Atomic Charges

     Atom                 Charge (a.u.)
  ----------------------------------------
      1 O                    -0.488776
      2 C                    -0.088729
      3 H                     0.129641
      4 H                     0.127772
      5 H                     0.134555
      6 O                    -0.454183
      7 C                     0.577061
      8 C                    -0.241798
      9 H                     0.132444
     10 H                     0.121130
     11 C                    -0.179013
     12 H                     0.104071
     13 H                     0.125484
     14 C                    -0.191769
     15 H                     0.105718
     16 H                     0.103104
     17 C                    -0.006213
     18 C                     0.126276
     19 C                    -0.129492
     20 H                     0.088392
     21 C                    -0.072916
     22 H                     0.094157
     23 C                    -0.094813
     24 H                     0.086670
     25 C                    -0.090035
     26 H                     0.097796
     27 C                    -0.120313
     28 H                     0.089798
     29 C                    -0.007656
     30 C                    -0.005035
     31 C                     0.003072
     32 C                    -0.028173
     33 C                    -0.029880
     34 C                     0.020193
     35 C                    -0.008693
     36 C                     0.008537
     37 C                     0.012437
     38 C                    -0.001114
     39 C                    -0.067182
     40 C                    -0.021128
     41 C                     0.003986
     42 C                     0.021646
     43 C                     0.025516
     44 C                     0.004628
     45 C                    -0.071262
     46 C                     0.015879
     47 C                    -0.005150
     48 C                    -0.015216
     49 C                    -0.013061
     50 C                     0.001898
     51 C                     0.025826
     52 C                     0.007486
     53 C                     0.024510
     54 C                    -0.015307
     55 C                     0.019956
     56 C                    -0.015600
     57 C                     0.043883
     58 C                    -0.023930
     59 C                    -0.028397
     60 C                    -0.009502
     61 C                     0.002250
     62 C                     0.002401
     63 C                     0.001741
     64 C                    -0.015901
     65 C                     0.020509
     66 C                     0.008984
     67 C                     0.016316
     68 C                    -0.025510
     69 C                     0.008819
     70 C                     0.024190
     71 C                    -0.014361
     72 C                     0.019501
     73 C                    -0.017751
     74 C                    -0.006344
     75 C                     0.005237
     76 C                    -0.021184
     77 C                     0.007391
     78 C                    -0.021154
     79 C                     0.012182
     80 C                     0.005278
     81 C                    -0.001540
     82 C                     0.032831
     83 C                     0.017930
     84 C                    -0.018203
     85 C                     0.000303
     86 C                    -0.020502
     87 C                     0.014769
     88 C                    -0.009748
     89 O                    -0.483584
     90 C                    -0.077614
     91 H                     0.139822
     92 H                     0.128861
     93 H                     0.128757
     94 O                    -0.496153
     95 C                     0.585674
     96 C                    -0.234301
     97 H                     0.133634
     98 H                     0.131858
     99 C                    -0.189913
    100 H                     0.114017
    101 H                     0.126465
    102 C                    -0.201785
    103 H                     0.121806
    104 H                     0.105013
    105 C                     0.032717
    106 C                     0.087902
    107 C                    -0.100841
    108 H                     0.094447
    109 C                    -0.099119
    110 H                     0.093292
    111 C                    -0.065727
    112 H                     0.092909
    113 C                    -0.090978
    114 H                     0.083006
    115 C                    -0.110026
    116 H                     0.098335
    117 C                    -0.006790
    118 C                     0.033095
    119 C                     0.005073
    120 C                     0.022657
    121 C                     0.002205
    122 C                    -0.028788
    123 C                    -0.001651
    124 C                     0.001263
    125 C                    -0.013839
    126 C                    -0.030699
    127 C                    -0.081442
    128 C                     0.021164
    129 C                     0.022468
    130 C                     0.007282
    131 C                     0.020844
    132 C                    -0.003256
    133 C                    -0.101212
    134 C                     0.085876
    135 C                    -0.001764
    136 C                     0.018009
    137 C                    -0.014110
    138 C                    -0.008176
    139 C                    -0.029118
    140 C                    -0.022520
    141 C                     0.006628
    142 C                     0.002116
    143 C                     0.015789
    144 C                     0.004703
    145 C                    -0.003139
    146 C                    -0.008254
    147 C                     0.000019
    148 C                     0.028969
    149 C                    -0.009320
    150 C                    -0.036875
    151 C                     0.019337
    152 C                     0.014940
    153 C                    -0.028293
    154 C                     0.002579
    155 C                     0.012581
    156 C                    -0.018040
    157 C                    -0.024118
    158 C                     0.033445
    159 C                    -0.001530
    160 C                    -0.009090
    161 C                     0.000515
    162 C                     0.005951
    163 C                    -0.009893
    164 C                     0.048151
    165 C                     0.024453
    166 C                    -0.029935
    167 C                     0.013928
    168 C                    -0.029947
    169 C                     0.007814
    170 C                     0.017183
    171 C                    -0.035053
    172 C                     0.013205
    173 C                    -0.019603
    174 C                    -0.022651
    175 C                    -0.009346
    176 C                    -0.009889
  ----------------------------------------
  Sum of atomic charges =     0.000000

                    Cartesian Multipole Moments
 -----------------------------------------------------------------
    Charge (ESU x 10^10)
                 0.0000
    Dipole Moment (Debye)
         X      -3.9654      Y       2.3008      Z      -2.2291
       Tot       5.0978
    Quadrupole Moments (Debye-Ang)
        XX    -728.0392     XY     -31.6633     YY    -824.4416
        XZ      18.2784     YZ     -15.1543     ZZ    -805.0263

 Total job time:  872.10s(wall), 8352.26s(cpu)
        *  Thank you very much for using Q-Chem.  Have a nice day.  *
