 Q-Chem 4.4, Q-Chem, Inc., Pleasanton, CA (2016)
 Q-Chem 4.4.2 for Intel X86 Linux

User input:
--------------------------------------------------------------
$comment
SP
$end

$rem
MEM_STATIC 5000
MEM_TOTAL 20000
JOBTYPE SP
EXCHANGE B3LYP
BASIS 6-31g(d,p)
$end

$molecule
0 1
O         -10.858000    -13.963000     -9.780000
C          -9.686000    -14.808000     -9.675000
H          -9.647000    -15.437000     -8.777000
H          -8.797000    -14.171000     -9.586000
H          -9.390000    -15.482000    -10.489000
O         -11.130000    -14.078000    -12.054000
C         -11.380000    -13.570000    -10.940000
C         -12.381000    -12.448000    -10.714000
H         -11.743000    -11.738000    -10.171000
H         -13.133000    -12.961000    -10.102000
C         -13.178000    -11.786000    -11.880000
H         -12.520000    -11.445000    -12.689000
H         -13.831000    -12.480000    -12.424000
C         -13.997000    -10.561000    -11.341000
H         -13.370000     -9.952000    -10.678000
H         -14.259000     -9.914000    -12.188000
C         -15.291000    -11.002000    -10.608000
C         -16.241000    -11.807000    -11.472000
C         -16.995000    -11.159000    -12.496000
H         -16.785000    -10.125000    -12.751000
C         -17.890000    -11.897000    -13.263000
H         -18.436000    -11.359000    -14.034000
C         -17.970000    -13.292000    -13.079000
H         -18.704000    -13.916000    -13.580000
C         -17.246000    -13.914000    -11.984000
H         -17.354000    -14.987000    -11.861000
C         -16.274000    -13.195000    -11.249000
H         -15.750000    -13.647000    -10.412000
C         -19.369000     -8.604000     -7.759000
C         -19.373000    -10.877000     -6.993000
C         -17.887000    -10.120000     -2.826000
C         -14.660000     -6.699000     -7.156000
C         -14.610000    -11.205000     -3.515000
C         -19.164000     -9.967000     -8.040000
C         -13.611000     -8.054000     -4.882000
C         -19.466000     -8.858000     -4.175000
C         -15.817000    -12.661000     -7.167000
C         -13.838000     -7.837000     -7.308000
C         -15.369000    -11.261000     -9.100000
C         -14.563000    -12.043000     -6.961000
C         -13.141000     -9.856000     -6.401000
C         -13.818000     -8.884000     -3.772000
C         -17.640000    -11.662000     -8.304000
C         -15.792000     -9.385000     -2.504000
C         -15.811000     -9.929000     -9.627000
C         -15.096000     -8.681000     -9.198000
C         -15.697000    -10.713000     -2.766000
C         -17.187000     -6.229000     -4.781000
C         -17.525000     -7.694000     -3.059000
C         -18.673000     -7.726000     -3.904000
C         -19.938000     -9.090000     -5.440000
C         -16.044000     -7.634000     -8.984000
C         -16.330000    -12.075000     -8.368000
C         -19.790000    -10.445000     -5.718000
C         -13.258000     -8.469000     -6.174000
C         -18.424000    -11.904000     -7.186000
C         -14.154000    -11.875000     -5.627000
C         -16.892000     -6.170000     -7.193000
C         -19.030000    -10.058000     -3.622000
C         -14.231000    -11.207000     -8.070000
C         -18.956000     -6.996000     -6.214000
C         -13.375000    -10.768000     -5.345000
C         -16.635000    -12.861000     -6.043000
C         -15.289000     -7.221000     -3.588000
C         -14.519000     -7.028000     -4.778000
C         -16.207000    -12.691000     -4.731000
C         -15.797000     -6.693000     -7.938000
C         -14.005000     -8.794000     -8.276000
C         -16.383000     -5.898000     -5.922000
C         -17.211000     -9.516000     -9.413000
C         -18.388000    -12.206000     -4.732000
C         -13.578000    -10.032000     -7.748000
C         -14.916000    -12.161000     -4.491000
C         -18.199000     -6.666000     -7.365000
C         -17.008000    -11.236000     -3.002000
C         -19.703000     -8.157000     -6.461000
C         -17.115000     -8.974000     -2.574000
C         -17.993000    -12.568000     -6.058000
C         -17.218000    -12.186000     -3.950000
C         -18.111000    -10.447000     -8.842000
C         -17.334000     -8.134000     -9.114000
C         -16.610000     -6.777000     -3.596000
C         -19.316000    -11.068000     -4.560000
C         -13.648000    -10.324000     -4.055000
C         -15.023000     -6.285000     -5.877000
C         -14.849000     -8.420000     -2.971000
C         -18.416000     -7.700000     -8.319000
C         -18.439000     -6.784000     -4.921000
O         -17.149000    -13.909000     -1.238000
C         -17.890000    -15.055000     -1.751000
H         -17.460000    -15.486000     -2.663000
H         -18.939000    -14.831000     -1.983000
H         -17.967000    -15.795000     -0.945000
O         -15.118000    -15.092000     -1.213000
C         -15.816000    -14.171000     -0.872000
C         -15.239000    -13.061000      0.071000
H         -15.834000    -13.141000      0.989000
H         -15.392000    -12.074000     -0.384000
C         -13.756000    -13.012000      0.470000
H         -13.542000    -12.160000      1.127000
H         -13.564000    -13.956000      0.995000
C         -12.804000    -12.843000     -0.768000
H         -13.309000    -13.262000     -1.647000
H         -12.728000    -11.760000     -0.932000
C         -11.395000    -13.456000     -0.834000
C         -11.324000    -14.731000      0.019000
C         -10.722000    -14.762000      1.308000
H         -10.306000    -13.852000      1.731000
C         -10.669000    -15.918000      2.066000
H         -10.351000    -15.774000      3.095000
C         -11.149000    -17.085000      1.570000
H         -11.213000    -17.892000      2.294000
C         -11.721000    -17.129000      0.316000
H         -12.223000    -18.074000      0.129000
C         -11.950000    -15.967000     -0.415000
H         -12.468000    -15.954000     -1.369000
C          -5.853000    -13.172000     -1.110000
C          -6.405000    -14.943000     -2.617000
C          -5.406000    -12.763000     -6.450000
C          -8.362000     -8.829000     -2.287000
C          -8.766000    -11.856000     -7.195000
C          -6.645000    -14.288000     -1.443000
C          -8.774000     -8.880000     -5.103000
C          -4.299000    -12.741000     -4.314000
C          -9.976000    -14.358000     -4.209000
C          -9.638000     -9.243000     -2.870000
C         -10.646000    -13.374000     -2.180000
C         -10.770000    -13.207000     -4.543000
C         -10.581000    -10.434000     -4.561000
C          -8.490000     -9.600000     -6.294000
C          -8.620000    -14.938000     -2.293000
C          -6.566000    -10.881000     -6.964000
C         -10.059000    -12.652000     -1.039000
C          -9.871000    -11.109000     -1.221000
C          -7.371000    -11.962000     -7.287000
C          -5.073000     -9.449000     -3.400000
C          -4.787000    -10.610000     -5.347000
C          -4.165000    -11.320000     -4.323000
C          -4.573000    -13.478000     -3.137000
C          -8.563000    -10.753000     -0.788000
C          -9.866000    -14.474000     -2.825000
C          -5.322000    -14.591000     -3.458000
C          -9.852000     -9.294000     -4.283000
C          -7.631000    -15.339000     -3.212000
C         -10.366000    -12.479000     -5.717000
C          -6.466000     -9.678000     -1.391000
C          -4.860000    -13.438000     -5.346000
C         -11.047000    -12.548000     -3.365000
C          -4.758000    -11.347000     -2.000000
C         -10.300000    -11.112000     -5.719000
C          -8.963000    -14.810000     -5.099000
C          -6.576000     -8.986000     -5.385000
C          -7.548000     -8.494000     -4.513000
C          -8.690000    -14.135000     -6.302000
C          -7.892000     -9.589000     -1.245000
C         -10.341000    -10.363000     -2.343000
C          -6.101000     -8.953000     -2.525000
C          -8.661000    -13.092000     -0.681000
C          -6.755000    -14.992000     -5.426000
C         -10.903000    -11.089000     -3.397000
C          -9.412000    -13.014000     -6.662000
C          -5.749000    -10.879000     -1.086000
C          -6.628000    -13.158000     -7.000000
C          -4.811000    -12.752000     -1.981000
C          -5.383000    -11.336000     -6.411000
C          -7.787000    -15.371000     -4.611000
C          -7.319000    -14.269000     -6.535000
C          -8.032000    -14.241000     -1.169000
C          -7.897000    -11.927000     -0.470000
C          -5.379000     -9.469000     -4.744000
C          -5.507000    -14.592000     -4.871000
C          -9.254000    -10.690000     -6.593000
C          -7.316000     -8.456000     -3.116000
C          -7.148000     -9.621000     -6.490000
C          -6.478000    -11.981000     -0.614000
C          -4.389000    -10.647000     -3.149000
$end

--------------------------------------------------------------

             Standard Nuclear Orientation (Angstroms)
    I     Atom           X                Y                Z
 ----------------------------------------------------------------
    1      O      -0.2334063649    -4.7454414879    -2.9471092465
    2      C      -1.5210762481    -5.0770921072    -3.5220424066
    3      H      -2.0529161914    -4.2360744706    -3.9839965274
    4      H      -2.1944267219    -5.4018843935    -2.7188487125
    5      H      -1.6330869324    -5.8959148916    -4.2441717956
    6      O       0.8574696788    -6.6947920222    -3.4650927901
    7      C       0.7730308701    -5.6113654907    -2.8481511085
    8      C       1.8473527754    -5.0665689677    -1.9202555366
    9      H       1.2402513539    -4.8800256607    -1.0243635461
   10      H       2.1583364922    -4.1683415648    -2.4676983744
   11      C       3.1657404557    -5.8422452081    -1.6149863202
   12      H       2.9730933562    -6.8700648658    -1.2830226983
   13      H       3.7904353918    -6.0245626952    -2.4984440558
   14      C       3.9820504068    -5.0940632863    -0.5033349019
   15      H       3.3142523188    -4.7873945800     0.3112686939
   16      H       4.6972527173    -5.7982843919    -0.0592399914
   17      C       4.7466202393    -3.8678476047    -1.0672799996
   18      C       5.7325649877    -4.2121892732    -2.1656254683
   19      C       6.9545659393    -4.8754648043    -1.8434838162
   20      H       7.1140985816    -5.2597593574    -0.8409131042
   21      C       7.8702282851    -5.1584441905    -2.8511758006
   22      H       8.7830022847    -5.6699615705    -2.5558884902
   23      C       7.5355043274    -4.8690170642    -4.1892613026
   24      H       8.2326164578    -4.9834426188    -5.0139275807
   25      C       6.3191227240    -4.1305068800    -4.4809863491
   26      H       6.1102002185    -3.9056615985    -5.5221001691
   27      C       5.3426201587    -3.9070334790    -3.4817504516
   28      H       4.4446774051    -3.3319513190    -3.6877318110
   29      C       7.8583842242     0.2445202666     0.9082311729
   30      C       7.0207914828     1.0882715478    -1.1749930529
   31      C       4.2731302007     4.2199525437     0.4947571137
   32      C       3.8880541722    -1.2622573013     3.7601455543
   33      C       1.3582188239     2.3171758928    -0.0281268909
   34      C       7.4565793644    -0.0080686184    -0.4159692310
   35      C       1.7517624513     0.4620879633     3.0049018243
   36      C       6.5029046183     3.5605229474     1.2011172587
   37      C       3.4909567732    -0.4159184331    -2.2407075663
   38      C       2.9408623146    -1.6652279700     2.7935669363
   39      C       4.1728782052    -2.4476125034    -1.0986062725
   40      C       2.4427555563    -0.7829362631    -1.3669523824
   41      C       1.4853832454    -0.9972869040     1.1142056257
   42      C       1.3091368717     1.6097940018     2.3335580631
   43      C       5.7932698876    -0.7655155324    -1.8034031057
   44      C       2.4590276240     3.6056658416     1.6629256327
   45      C       5.0897145803    -2.8306736510     0.0238874774
   46      C       4.5871700848    -2.8138451497     1.4380783526
   47      C       2.1563176297     3.4132842400     0.3542587619
   48      C       5.3373921597     1.9054680681     4.0950923891
   49      C       4.6231453932     3.7042343261     2.8785215914
   50      C       5.9638743344     3.4090316126     2.4934835878
   51      C       7.3551104265     2.6185364811     0.6880482987
   52      C       5.6008770326    -2.2969276045     2.3017353883
   53      C       4.5515348655    -1.3351738475    -1.9594432899
   54      C       7.0048572582     2.3915677111    -0.6389863261
   55      C       1.8353530605    -0.8314812141     2.4703090884
   56      C       6.0029068352     0.5887654716    -2.0158161758
   57      C       1.6047220867     0.2517708303    -0.9173501864
   58      C       6.0180519801    -0.4133311786     3.8340899712
   59      C       5.6131056979     3.9612544761     0.2093626906
   60      C       2.7750648013    -1.9814388760    -0.6654090462
   61      C       7.2814085160     1.3774100288     2.7862401769
   62      C       1.0679217626     0.1176318700     0.3497986413
   63      C       3.7386645366     0.9550936043    -2.4180965661
   64      C       2.9483607905     2.2747604592     3.6878219055
   65      C       2.7671677754     0.8638716958     3.8388549765
   66      C       2.8926593447     1.9618610369    -1.9662973275
   67      C       5.2038373182    -1.5071032170     3.4238507577
   68      C       3.2327273584    -2.4159282396     1.6836003145
   69      C       5.1401770399     0.5163630983     4.3940097342
   70      C       6.3538438295    -2.0876263190     0.1858223526
   71      C       4.9527769664     2.8254065135    -1.9194828586
   72      C       2.3514511595    -2.0318106590     0.6494035511
   73      C       1.7772525032     1.6162055646    -1.1653161340
   74      C       7.1296821110    -0.0014295474     3.0735214351
   75      C       3.2896844279     3.7703419261    -0.4431968854
   76      C       7.7632403354     1.5336993287     1.4784363871
   77      C       3.7634941283     4.0589059913     1.7936562944
   78      C       5.0247781243     1.4802776590    -2.3998881021
   79      C       3.6138372640     3.0550404622    -1.5516068974
   80      C       6.7120770000    -1.1391924318    -0.8015702529
   81      C       6.6802173510    -1.8535476745     1.5471237566
   82      C       4.2350844971     2.7814628202     3.8605523897
   83      C       5.9867067423     3.2900901773    -0.9703409771
   84      C       0.9207898347     1.3746808252     0.9276784904
   85      C       3.8181419342     0.0236570963     4.2898081273
   86      C       2.0305794540     2.7319987815     2.7077706134
   87      C       7.4422049816    -0.7139421514     1.8814575758
   88      C       6.3735160421     2.3276677549     3.2930177512
   89      O       2.0935454206     5.6036848701    -2.7851215479
   90      C       2.6761224940     5.5146033000    -4.1186261138
   91      H       2.5408530276     4.5360828869    -4.5946565462
   92      H       3.7539568069     5.7199525985    -4.1411174340
   93      H       2.2564184778     6.3266659419    -4.7248998179
   94      O      -0.0098467145     4.8681972802    -3.5333691884
   95      C       0.7019154855     5.4060449599    -2.7235294238
   96      C       0.0911352150     5.9558829915    -1.3897739739
   97      H       0.2483514656     7.0402878395    -1.4397557326
   98      H       0.6398613286     5.5417188291    -0.5342211123
   99      C      -1.3721474504     5.7067820656    -0.9927304374
  100      H      -1.6112857469     6.1620213338    -0.0237520662
  101      H      -1.9722627119     6.1658540793    -1.7881797187
  102      C      -1.7027698999     4.1790429965    -0.8371311682
  103      H      -1.0148060479     3.6136629245    -1.4776607245
  104      H      -1.4471368635     3.9294039515     0.2010851377
  105      C      -3.0799854752     3.5797093084    -1.1680124000
  106      C      -3.7781814189     4.4079727298    -2.2564870800
  107      C      -4.8186396633     5.3352341309    -1.9692259868
  108      H      -5.1336644331     5.4909854133    -0.9413223277
  109      C      -5.4356088841     6.0768672307    -2.9607088792
  110      H      -6.0808143563     6.8730503366    -2.5994563906
  111      C      -5.0971719328     5.8974303645    -4.2613117552
  112      H      -5.5129595029     6.6338550156    -4.9427223729
  113      C      -4.1149448785     4.9944835317    -4.6099563174
  114      H      -3.8226326933     5.0909412069    -5.6517084488
  115      C      -3.3501249340     4.3492873016    -3.6425793086
  116      H      -2.5179058965     3.6933974583    -3.8788608930
  117      C      -7.8432272857     1.0350712510     0.1384869731
  118      C      -7.1962026603     0.0042408078    -1.9184383370
  119      C      -6.0857823700    -4.0317683555    -0.2096707072
  120      C      -4.1109915162     0.7168805385     3.6756086605
  121      C      -2.5871696202    -3.3878660275    -0.0984384323
  122      C      -7.2773563065     1.1287348068    -1.1478357598
  123      C      -2.6711757209    -1.6720739597     3.1081336557
  124      C      -7.8897960323    -2.5448256270     0.3586294145
  125      C      -3.2606017828    -0.0150444368    -2.2918065364
  126      C      -2.8489283747     0.7369728042     2.9365187284
  127      C      -3.2090268421     2.0426474449    -1.1528415916
  128      C      -2.1479822952    -0.0664568892    -1.3828358902
  129      C      -1.6433089113    -0.3377779878     1.3369552115
  130      C      -2.6382895477    -2.8259391752     2.2804558415
  131      C      -5.3463179573     1.2080579511    -2.2925731676
  132      C      -4.4021103005    -4.1433846357     1.3083906119
  133      C      -3.9982106125     2.7932911722    -0.1621564897
  134      C      -3.7249302421     2.4518751892     1.3405310912
  135      C      -3.8201017814    -4.0375262064     0.0550051657
  136      C      -6.7615277942    -1.6062240351     3.5394742448
  137      C      -6.5450799415    -3.4203477925     2.1673841167
  138      C      -7.6643653806    -2.6989105327     1.7595993867
  139      C      -8.2762000580    -1.3146168484    -0.2251961501
  140      C      -4.9716436560     2.2859169401     2.0063032167
  141      C      -3.9197199678     1.2060682629    -2.1674723389
  142      C      -7.7525440207    -1.2278851220    -1.4984097858
  143      C      -2.1260918211    -0.4571368354     2.6257527625
  144      C      -5.9697409760    -0.0082620470    -2.6322677394
  145      C      -1.8807234006    -1.3467366452    -0.7820593679
  146      C      -6.3494574293     0.8077034097     3.3602444874
  147      C      -7.1597690718    -3.2085991811    -0.5858383223
  148      C      -2.1967500059     1.0766110397    -0.6149091878
  149      C      -8.0375353637    -0.3407577666     1.9799779139
  150      C      -1.6103751679    -1.4630814924     0.5545126315
  151      C      -3.9288330560    -1.2115788025    -2.6717347890
  152      C      -4.5463583998    -2.8242494025     3.3876791254
  153      C      -3.8981131536    -1.6634794437     3.8114989025
  154      C      -3.5464141547    -2.4610608063    -2.1522027822
  155      C      -5.1137944758     1.5202960706     3.1927280263
  156      C      -2.6946669762     1.5765887036     1.7974021574
  157      C      -6.0635827199    -0.4199887176     3.9567792232
  158      C      -5.4874311969     2.5730710864    -0.2616208801
  159      C      -5.8138441653    -2.4039304677    -2.4708676080
  160      C      -1.9622390135     0.8950697028     0.8212274134
  161      C      -2.4951341792    -2.5637653594    -1.2623785366
  162      C      -7.3943091101     0.8675504620     2.3834035099
  163      C      -4.8799825439    -4.0050464209    -0.9147534809
  164      C      -8.3351446979    -0.2118572883     0.6117643520
  165      C      -5.7785057692    -4.0970028870     1.1830620548
  166      C      -5.2994110958    -1.2146663392    -2.9112077603
  167      C      -4.7103627665    -3.2273269834    -2.0524742761
  168      C      -6.1358482616     1.9444271459    -1.3285548547
  169      C      -5.9695782432     2.3768012646     1.0477508711
  170      C      -5.9758595069    -2.7017820384     3.2516374790
  171      C      -7.0435348011    -2.4370993482    -1.7551234040
  172      C      -2.1042201761    -2.7145089981     1.0300358233
  173      C      -4.6339455223    -0.4904820750     4.1106725948
  174      C      -3.7635106078    -3.5538711167     2.4897729562
  175      C      -7.1913671902     1.6666633677     1.2481228657
  176      C      -7.7554507101    -1.5821370062     2.5507386622
 ----------------------------------------------------------------

    9   -5804.2583815116      8.54E-06 Convergence criterion met
 Total energy in the final basis set = -5804.2583815116

                    Orbital Energies (a.u.)
 --------------------------------------------------------------

 Alpha MOs
 -- Occupied --
-19.201 -19.200 -19.154 -19.123 -10.332 -10.315 -10.250 -10.246
-10.246 -10.246 -10.244 -10.242 -10.236 -10.236 -10.234 -10.233
-10.231 -10.229 -10.227 -10.226 -10.225 -10.223 -10.223 -10.222
-10.222 -10.221 -10.221 -10.221 -10.221 -10.220 -10.220 -10.220
-10.220 -10.220 -10.219 -10.219 -10.219 -10.219 -10.219 -10.218
-10.218 -10.218 -10.218 -10.218 -10.218 -10.218 -10.218 -10.218
-10.218 -10.218 -10.217 -10.217 -10.217 -10.217 -10.217 -10.217
-10.217 -10.217 -10.217 -10.217 -10.217 -10.217 -10.216 -10.216
-10.216 -10.216 -10.216 -10.216 -10.216 -10.216 -10.216 -10.216
-10.216 -10.215 -10.215 -10.215 -10.215 -10.215 -10.215 -10.215
-10.215 -10.215 -10.215 -10.214 -10.214 -10.214 -10.214 -10.214
-10.213 -10.213 -10.213 -10.213 -10.213 -10.213 -10.213 -10.213
-10.213 -10.213 -10.213 -10.213 -10.213 -10.213 -10.213 -10.213
-10.212 -10.212 -10.212 -10.212 -10.212 -10.211 -10.211 -10.211
-10.211 -10.211 -10.211 -10.211 -10.210 -10.210 -10.210 -10.210
-10.210 -10.210 -10.209 -10.209 -10.209 -10.209 -10.209 -10.208
-10.208 -10.208 -10.208 -10.207 -10.207 -10.206 -10.205 -10.204
-10.204 -10.204 -10.203 -10.201 -10.201 -10.199 -10.197 -10.196
-10.192 -10.191 -10.186 -10.185  -1.095  -1.092  -1.025  -0.990
 -0.983  -0.980  -0.965  -0.963  -0.962  -0.961  -0.960  -0.959
 -0.934  -0.929  -0.927  -0.926  -0.925  -0.924  -0.922  -0.922
 -0.920  -0.919  -0.896  -0.895  -0.891  -0.888  -0.886  -0.881
 -0.873  -0.868  -0.852  -0.851  -0.840  -0.839  -0.839  -0.838
 -0.837  -0.834  -0.821  -0.817  -0.801  -0.800  -0.797  -0.796
 -0.796  -0.794  -0.794  -0.793  -0.791  -0.790  -0.782  -0.782
 -0.772  -0.770  -0.769  -0.767  -0.765  -0.763  -0.762  -0.760
 -0.756  -0.746  -0.745  -0.737  -0.733  -0.730  -0.717  -0.716
 -0.715  -0.714  -0.713  -0.711  -0.711  -0.711  -0.709  -0.707
 -0.706  -0.705  -0.704  -0.703  -0.703  -0.703  -0.673  -0.670
 -0.660  -0.658  -0.657  -0.653  -0.649  -0.645  -0.634  -0.630
 -0.627  -0.627  -0.624  -0.623  -0.623  -0.621  -0.619  -0.615
 -0.615  -0.614  -0.612  -0.611  -0.610  -0.609  -0.609  -0.608
 -0.606  -0.603  -0.603  -0.600  -0.571  -0.563  -0.562  -0.561
 -0.559  -0.558  -0.558  -0.557  -0.557  -0.555  -0.555  -0.550
 -0.537  -0.536  -0.533  -0.530  -0.527  -0.527  -0.526  -0.525
 -0.524  -0.524  -0.520  -0.517  -0.515  -0.515  -0.513  -0.513
 -0.505  -0.504  -0.502  -0.494  -0.493  -0.491  -0.487  -0.487
 -0.485  -0.483  -0.481  -0.480  -0.479  -0.477  -0.476  -0.475
 -0.474  -0.470  -0.470  -0.469  -0.468  -0.468  -0.466  -0.465
 -0.464  -0.464  -0.463  -0.463  -0.460  -0.459  -0.459  -0.457
 -0.456  -0.454  -0.453  -0.450  -0.446  -0.445  -0.443  -0.442
 -0.441  -0.440  -0.439  -0.439  -0.437  -0.436  -0.436  -0.434
 -0.432  -0.431  -0.430  -0.428  -0.427  -0.427  -0.424  -0.423
 -0.423  -0.422  -0.421  -0.420  -0.419  -0.419  -0.418  -0.417
 -0.417  -0.417  -0.415  -0.415  -0.414  -0.414  -0.413  -0.412
 -0.410  -0.409  -0.408  -0.402  -0.400  -0.399  -0.398  -0.397
 -0.395  -0.391  -0.390  -0.389  -0.387  -0.387  -0.386  -0.384
 -0.379  -0.378  -0.374  -0.372  -0.370  -0.367  -0.365  -0.365
 -0.363  -0.362  -0.362  -0.360  -0.360  -0.358  -0.357  -0.357
 -0.356  -0.356  -0.356  -0.355  -0.354  -0.354  -0.353  -0.351
 -0.351  -0.350  -0.349  -0.347  -0.345  -0.344  -0.344  -0.342
 -0.341  -0.341  -0.340  -0.340  -0.339  -0.338  -0.335  -0.334
 -0.332  -0.330  -0.330  -0.329  -0.328  -0.327  -0.324  -0.322
 -0.309  -0.309  -0.299  -0.292  -0.288  -0.287  -0.278  -0.272
 -0.270  -0.270  -0.269  -0.267  -0.266  -0.265  -0.264  -0.262
 -0.261  -0.261  -0.258  -0.258  -0.256  -0.255  -0.252  -0.251
 -0.249  -0.245  -0.244  -0.241  -0.221  -0.219  -0.212  -0.212
 -0.210  -0.209  -0.205  -0.204  -0.200  -0.197

          Ground-State Mulliken Net Atomic Charges

     Atom                 Charge (a.u.)
  ----------------------------------------
      1 O                    -0.443574
      2 C                    -0.102139
      3 H                     0.129650
      4 H                     0.124733
      5 H                     0.140945
      6 O                    -0.494503
      7 C                     0.565584
      8 C                    -0.233199
      9 H                     0.132008
     10 H                     0.136445
     11 C                    -0.188512
     12 H                     0.110026
     13 H                     0.125315
     14 C                    -0.187605
     15 H                     0.108408
     16 H                     0.110650
     17 C                     0.015662
     18 C                     0.077700
     19 C                    -0.094320
     20 H                     0.094755
     21 C                    -0.084423
     22 H                     0.094712
     23 C                    -0.088154
     24 H                     0.094706
     25 C                    -0.102229
     26 H                     0.093486
     27 C                    -0.094923
     28 H                     0.101677
     29 C                    -0.011542
     30 C                     0.003594
     31 C                    -0.006044
     32 C                    -0.019791
     33 C                    -0.006435
     34 C                    -0.017030
     35 C                     0.018300
     36 C                     0.002290
     37 C                    -0.018817
     38 C                     0.011791
     39 C                    -0.064750
     40 C                     0.010037
     41 C                     0.013207
     42 C                    -0.013078
     43 C                     0.048673
     44 C                     0.010682
     45 C                    -0.082614
     46 C                    -0.001943
     47 C                    -0.021853
     48 C                     0.005759
     49 C                    -0.006543
     50 C                     0.002479
     51 C                     0.002795
     52 C                    -0.006213
     53 C                    -0.000930
     54 C                     0.022495
     55 C                    -0.026621
     56 C                    -0.007260
     57 C                     0.009628
     58 C                     0.013652
     59 C                    -0.004524
     60 C                     0.043891
     61 C                    -0.004002
     62 C                     0.013113
     63 C                     0.020554
     64 C                     0.002911
     65 C                     0.020133
     66 C                    -0.015039
     67 C                     0.006910
     68 C                     0.025970
     69 C                    -0.015736
     70 C                     0.023450
     71 C                    -0.055268
     72 C                    -0.041818
     73 C                    -0.014387
     74 C                    -0.016078
     75 C                     0.033046
     76 C                     0.004263
     77 C                     0.006620
     78 C                    -0.012860
     79 C                     0.041742
     80 C                    -0.016396
     81 C                     0.028426
     82 C                    -0.029589
     83 C                    -0.029531
     84 C                    -0.017497
     85 C                    -0.005376
     86 C                    -0.008935
     87 C                    -0.011689
     88 C                     0.012446
     89 O                    -0.478972
     90 C                    -0.092447
     91 H                     0.136381
     92 H                     0.129441
     93 H                     0.122407
     94 O                    -0.446125
     95 C                     0.606377
     96 C                    -0.266516
     97 H                     0.129476
     98 H                     0.129318
     99 C                    -0.183591
    100 H                     0.107143
    101 H                     0.124576
    102 C                    -0.187745
    103 H                     0.129306
    104 H                     0.105793
    105 C                     0.009240
    106 C                     0.053431
    107 C                    -0.108456
    108 H                     0.082464
    109 C                    -0.072490
    110 H                     0.085004
    111 C                    -0.082864
    112 H                     0.087810
    113 C                    -0.094567
    114 H                     0.090283
    115 C                    -0.092302
    116 H                     0.108525
    117 C                    -0.021717
    118 C                     0.020717
    119 C                    -0.012351
    120 C                    -0.002935
    121 C                    -0.044533
    122 C                     0.003205
    123 C                    -0.014829
    124 C                     0.022781
    125 C                    -0.001893
    126 C                    -0.013937
    127 C                    -0.083555
    128 C                    -0.013157
    129 C                     0.019469
    130 C                     0.018857
    131 C                    -0.027928
    132 C                    -0.004754
    133 C                    -0.092629
    134 C                     0.002107
    135 C                     0.014817
    136 C                    -0.011373
    137 C                    -0.007722
    138 C                    -0.013403
    139 C                     0.000379
    140 C                     0.017898
    141 C                     0.048584
    142 C                    -0.019349
    143 C                    -0.025497
    144 C                     0.010602
    145 C                    -0.010946
    146 C                    -0.013309
    147 C                     0.004134
    148 C                     0.045015
    149 C                     0.025713
    150 C                     0.021366
    151 C                     0.005286
    152 C                    -0.010658
    153 C                     0.012398
    154 C                     0.018990
    155 C                     0.009133
    156 C                    -0.025094
    157 C                    -0.016285
    158 C                     0.061751
    159 C                     0.002448
    160 C                     0.012714
    161 C                     0.001814
    162 C                    -0.007961
    163 C                     0.006054
    164 C                    -0.009652
    165 C                    -0.001092
    166 C                    -0.005801
    167 C                    -0.034212
    168 C                    -0.006976
    169 C                     0.018056
    170 C                     0.025271
    171 C                    -0.009348
    172 C                     0.018180
    173 C                     0.006724
    174 C                    -0.015602
    175 C                    -0.018439
    176 C                     0.000019
  ----------------------------------------
  Sum of atomic charges =     0.000000

                    Cartesian Multipole Moments
 -----------------------------------------------------------------
    Charge (ESU x 10^10)
                 0.0000
    Dipole Moment (Debye)
         X       1.9331      Y       3.2240      Z      -1.6071
       Tot       4.0882
    Quadrupole Moments (Debye-Ang)
        XX    -803.9872     XY     -15.7782     YY    -795.9076
        XZ      -8.1421     YZ     -18.2434     ZZ    -805.3647

 Total job time:  891.26s(wall), 8544.76s(cpu)
        *  Thank you very much for using Q-Chem.  Have a nice day.  *
