 Q-Chem 4.4, Q-Chem, Inc., Pleasanton, CA (2016)
 Q-Chem 4.4.2 for Intel X86 Linux

User input:
--------------------------------------------------------------
$comment
SP
$end

$rem
MEM_STATIC 5000
MEM_TOTAL 20000
JOBTYPE SP
EXCHANGE B3LYP
BASIS 6-31g(d,p)
$end

$molecule
0 1
O          -8.920000     13.387000     10.210000
C         -10.298000     13.513000     10.361000
H         -10.470000     13.998000     11.330000
H         -10.701000     12.494000     10.302000
H         -10.765000     14.037000      9.518000
O          -8.460000     14.630000      8.268000
C          -8.068000     13.961000      9.215000
C          -6.600000     13.515000      9.397000
H          -6.536000     12.589000      9.982000
H          -6.136000     14.197000     10.121000
C          -5.689000     13.415000      8.179000
H          -5.541000     14.437000      7.810000
H          -4.652000     13.119000      8.380000
C          -6.238000     12.416000      7.117000
H          -5.313000     11.942000      6.766000
H          -6.733000     11.634000      7.705000
C          -7.006000     12.867000      5.898000
C          -6.483000     14.095000      5.221000
C          -7.140000     15.343000      5.394000
H          -8.090000     15.383000      5.918000
C          -6.459000     16.443000      4.835000
H          -6.826000     17.412000      5.160000
C          -5.402000     16.282000      3.907000
H          -4.924000     17.164000      3.491000
C          -4.875000     15.023000      3.626000
H          -3.985000     14.892000      3.018000
C          -5.363000     13.927000      4.352000
H          -4.953000     12.922000      4.304000
C         -12.313000     13.560000      4.346000
C         -11.105000     13.062000      2.335000
C         -12.876000      8.906000      1.728000
C         -11.318000      9.878000      7.717000
C          -9.985000      7.210000      2.954000
C         -11.152000     13.686000      3.586000
C         -11.008000      7.471000      6.412000
C         -13.901000     10.953000      2.464000
C          -7.858000     10.724000      2.879000
C         -10.049000      9.429000      7.424000
C          -7.654000     11.790000      5.009000
C          -7.620000      9.705000      3.838000
C          -8.733000      8.309000      5.962000
C         -11.024000      6.933000      5.131000
C          -8.967000     12.882000      3.208000
C         -12.456000      7.290000      3.209000
C          -8.456000     12.538000      5.964000
C          -9.196000     11.687000      7.058000
C         -11.309000      7.392000      2.414000
C         -14.222000      9.911000      5.827000
C         -14.194000      8.924000      3.752000
C         -14.481000     10.301000      3.560000
C         -13.467000     12.301000      2.607000
C         -10.562000     12.161000      7.176000
C          -7.961000     11.921000      3.585000
C         -12.270000     12.391000      1.884000
C          -9.893000      8.233000      6.770000
C          -9.803000     12.629000      2.100000
C          -8.121000      8.384000      3.594000
C         -12.868000     11.428000      7.076000
C         -13.064000     10.294000      1.592000
C          -7.586000     10.254000      5.134000
C         -13.993000     12.214000      5.083000
C          -8.685000      7.692000      4.701000
C          -8.824000     10.413000      1.838000
C         -13.082000      7.763000      5.502000
C         -12.311000      7.974000      6.656000
C          -9.306000      9.088000      1.692000
C         -11.606000     11.283000      7.588000
C          -8.969000     10.265000      7.024000
C         -13.426000     10.173000      6.930000
C          -9.618000     13.383000      5.443000
C         -10.823000     10.662000      0.926000
C          -8.128000      9.516000      6.187000
C          -8.977000      8.118000      2.567000
C         -13.138000     12.466000      6.185000
C         -11.593000      8.396000      1.501000
C         -13.474000     12.879000      3.891000
C         -13.437000      8.187000      2.776000
C          -9.739000     11.367000      1.460000
C         -10.562000      9.257000      1.147000
C          -9.816000     13.596000      4.089000
C         -10.784000     13.155000      6.198000
C         -14.071000      8.687000      5.113000
C         -12.078000     11.154000      1.203000
C          -9.839000      6.967000      4.315000
C         -12.482000      9.181000      7.351000
C         -12.345000      7.019000      4.625000
C         -12.128000     13.310000      5.702000
C         -14.544000     10.905000      4.866000
O           3.821000      7.813000      8.763000
C           3.873000      6.674000      9.629000
H           3.772000      5.752000      9.043000
H           3.184000      6.674000     10.482000
H           4.920000      6.674000      9.958000
O           3.703000      9.220000     10.554000
C           3.795000      9.023000      9.332000
C           3.762000     10.172000      8.321000
H           3.416000      9.739000      7.375000
H           4.821000     10.422000      8.183000
C           2.880000     11.324000      8.702000
H           3.178000     11.801000      9.644000
H           3.125000     12.103000      7.971000
C           1.356000     11.047000      8.770000
H           1.341000     10.191000      9.455000
H           0.857000     11.828000      9.357000
C           0.641000     10.664000      7.449000
C           0.682000     11.751000      6.382000
C           1.872000     11.897000      5.547000
H           2.692000     11.211000      5.738000
C           1.862000     12.969000      4.653000
H           2.701000     13.071000      3.970000
C           0.840000     13.922000      4.645000
H           0.941000     14.763000      3.965000
C          -0.282000     13.750000      5.405000
H          -1.101000     14.459000      5.475000
C          -0.440000     12.699000      6.274000
H          -1.365000     12.669000      6.842000
C          -4.001000      9.030000      4.997000
C          -2.243000      8.016000      3.684000
C          -3.051000      3.687000      5.062000
C          -3.274000      7.709000      9.919000
C          -0.394000      3.799000      7.305000
C          -2.708000      9.114000      4.427000
C          -2.148000      5.181000     10.123000
C          -4.646000      5.598000      4.506000
C           0.943000      7.212000      5.830000
C          -1.931000      7.611000     10.255000
C           0.465000      9.170000      7.126000
C           1.090000      6.889000      7.158000
C          -0.085000      6.425000      9.619000
C          -1.739000      4.120000      9.300000
C          -0.471000      8.790000      4.810000
C          -2.743000      3.259000      7.196000
C          -0.693000      9.914000      7.441000
C          -1.496000      9.625000      8.717000
C          -1.478000      3.333000      6.610000
C          -5.523000      5.994000      7.863000
C          -4.752000      4.297000      6.597000
C          -5.324000      5.281000      5.745000
C          -4.415000      6.862000      3.959000
C          -2.811000      9.597000      8.414000
C           0.523000      8.563000      5.732000
C          -3.108000      6.899000      3.500000
C          -1.364000      6.330000     10.261000
C          -0.863000      7.821000      3.881000
C           0.840000      5.583000      7.615000
C          -4.866000      8.324000      8.385000
C          -3.496000      4.752000      4.255000
C           0.803000      7.977000      7.973000
C          -5.378000      7.665000      6.122000
C           0.368000      5.329000      8.905000
C           0.548000      6.232000      4.927000
C          -4.003000      4.429000      8.904000
C          -3.592000      5.359000      9.849000
C           0.361000      4.877000      5.319000
C          -3.761000      8.800000      9.124000
C          -1.024000      8.514000      9.520000
C          -5.026000      6.966000      8.728000
C          -1.757000     10.028000      6.456000
C          -1.159000      5.394000      3.676000
C           0.073000      7.720000      9.147000
C           0.444000      4.617000      6.665000
C          -4.985000      8.597000      7.025000
C          -1.674000      3.586000      5.218000
C          -4.815000      7.907000      4.817000
C          -3.689000      3.468000      6.221000
C          -0.340000      6.518000      3.898000
C          -0.744000      4.450000      4.598000
C          -1.614000      9.567000      5.148000
C          -2.989000      9.928000      7.093000
C          -4.949000      4.713000      7.924000
C          -2.559000      5.582000      3.549000
C          -0.480000      4.250000      8.665000
C          -4.129000      6.631000      9.726000
C          -2.865000      3.679000      8.540000
C          -4.097000      9.452000      6.354000
C          -5.733000      6.404000      6.516000
$end

--------------------------------------------------------------

             Standard Nuclear Orientation (Angstroms)
    I     Atom           X                Y                Z
 ----------------------------------------------------------------
    1      O       3.0476059577    -3.4715750338     4.8145319881
    2      C       4.3308189858    -3.2598222367     5.3106026258
    3      H       4.3874186337    -3.7725003916     6.2789659819
    4      H       4.4492657047    -2.1712018412     5.3822057619
    5      H       5.1093721926    -3.5698956307     4.6027725653
    6      O       3.4174810398    -4.6071543009     2.7892751767
    7      C       2.6451974998    -4.1480193822     3.6204233345
    8      C       1.1124570234    -4.1046208573     3.4309841619
    9      H       0.6648588376    -3.2821501502     4.0028187535
   10      H       0.6870788283    -4.9448061032     3.9946668241
   11      C       0.5288754411    -4.1261450966     2.0230018311
   12      H       0.7522405916    -5.1142624331     1.6031433563
   13      H      -0.5662131530    -4.1204792613     1.9586988805
   14      C       1.0303860972    -2.9282007765     1.1623843390
   15      H       0.1252298759    -2.6723026381     0.5978399584
   16      H       1.1421413623    -2.1039876629     1.8768607236
   17      C       2.1608845406    -3.0577280635     0.1702240941
   18      C       2.1634066963    -4.3105373388    -0.6484972007
   19      C       3.0677996960    -5.3633220227    -0.3438667502
   20      H       3.8388564142    -5.2106313887     0.4050211638
   21      C       2.8603195690    -6.5433979077    -1.0859010503
   22      H       3.3830592925    -7.4143193288    -0.7018254591
   23      C       2.0543972972    -6.5694654196    -2.2495864788
   24      H       1.9437730673    -7.5014897647    -2.7959900841
   25      C       1.2943882061    -5.4634616772    -2.6249701535
   26      H       0.5752713090    -5.5056809015    -3.4373822567
   27      C       1.2826204543    -4.3511255684    -1.7711517296
   28      H       0.6434591286    -3.4817084818    -1.8977049965
   29      C       7.6719249362    -2.2470295357     0.0140074013
   30      C       6.8959287872    -1.8872830114    -2.2264839321
   31      C       7.5860748098     2.6182763190    -2.2558026560
   32      C       4.9495416694     0.7411878150     3.1075452488
   33      C       4.1405707363     3.4120887413    -1.7702756040
   34      C       6.8050651739    -2.5911724226    -1.0211335679
   35      C       4.3323220376     3.1016139668     1.8268414157
   36      C       8.9114892327     0.8368165050    -1.3326517806
   37      C       3.1111349559    -0.5021389014    -2.4752819411
   38      C       3.7160686923     0.8810727550     2.5102282322
   39      C       2.6923230284    -1.7755470691    -0.4959133024
   40      C       2.3863060106     0.3318776901    -1.5843693049
   41      C       2.5411789185     1.7626211975     0.7879604358
   42      C       4.5121424873     3.7412571675     0.6065208915
   43      C       4.6425387181    -2.3321265775    -1.9266166311
   44      C       6.4064649181     3.9338481244    -0.8923480993
   45      C       3.4103721553    -2.3816984473     0.6139150438
   46      C       3.6105313122    -1.4756460139     1.8818433935
   47      C       5.5546940640     3.6195573844    -1.9571230722
   48      C       8.1234018352     1.6136435521     2.0250307525
   49      C       8.3335436833     2.7474882638     0.0373651434
   50      C       9.0149416195     1.5106742297    -0.1087508980
   51      C       8.8316569573    -0.5842721248    -1.3392026460
   52      C       4.9833270380    -1.5991706668     2.3343138957
   53      C       3.3566035978    -1.6940811287    -1.7964057575
   54      C       7.9126900661    -0.9061832972    -2.3469283278
   55      C       3.4088875889     2.0539455683     1.8679844051
   56      C       5.6219644247    -1.7764325622    -2.7766157173
   57      C       2.5601823374     1.7530707634    -1.6589029971
   58      C       6.9638275562    -0.3031776254     2.8470952664
   59      C       8.1645375912     1.3408097454    -2.3734630310
   60      C       2.1890109937    -0.3242689803    -0.3544427936
   61      C       8.7031948661    -0.5947027093     1.1902656171
   62      C       2.6353843065     2.4604302943    -0.4274826149
   63      C       4.1802736175     0.1360335343    -3.2257727569
   64      C       6.5647734331     3.4258250036     1.4720344676
   65      C       5.6237267068     2.9227504717     2.3841885523
   66      C       4.3117576587     1.5473237846    -3.2103852157
   67      C       5.6241745935    -0.5281188015     3.0218648484
   68      C       3.0275323487    -0.1596778471     1.8260850545
   69      C       7.1849089972     1.0598080891     2.8802304209
   70      C       4.8456108889    -2.8555209356     0.3874376119
   71      C       6.3317451354     0.4829711199    -3.6006735697
   72      C       2.2444120058     0.4268133943     0.8203010059
   73      C       3.5353026582     2.3189093179    -2.4251849885
   74      C       7.7072160728    -1.1536680211     2.0296207407
   75      C       6.3073739236     2.8073633092    -2.7914220673
   76      C       8.6832487308    -1.2569363653    -0.1110793550
   77      C       7.6654791202     3.3562951802    -1.0814904675
   78      C       5.3796605802    -0.5180894732    -3.3801068253
   79      C       5.6601589220     1.7506529846    -3.4191752287
   80      C       5.4131943488    -2.8869115294    -0.8753975502
   81      C       5.6911298780    -2.4113903722     1.4215607582
   82      C       7.8278626897     2.8202450394     1.3267883417
   83      C       7.5674765277     0.2995980318    -3.0234732262
   84      C       3.6118254385     3.4848349118    -0.4866002538
   85      C       5.9379692382     1.7393029085     3.0696216246
   86      C       5.8896704531     4.0373478041     0.4541396642
   87      C       7.1061210995    -2.1769014427     1.2830263409
   88      C       8.9204321351     0.8250467295     1.1543420869
   89      O      -9.9809412448    -1.1769755134     0.2881496762
   90      C     -10.5418162372    -0.1719977656     1.1398655733
   91      H     -10.5524405113     0.7953774347     0.6224166901
   92      H     -10.1042060207    -0.0766095866     2.1407293971
   93      H     -11.5980899127    -0.4657474419     1.1893332404
   94      O      -9.9266757699    -2.6668018497     2.0140484988
   95      C      -9.7708773415    -2.3882873540     0.8145846496
   96      C      -9.1901555248    -3.3944079274    -0.1823579582
   97      H      -8.7550211175    -2.8035054960    -0.9969826350
   98      H     -10.0785008004    -3.8892824832    -0.5934137274
   99      C      -8.1514794624    -4.3170925097     0.3833223393
  100      H      -8.5291191662    -4.9379340146     1.2052962318
  101      H      -7.9963056806    -5.0623744141    -0.4051591002
  102      C      -6.8195442398    -3.6727122000     0.8466274000
  103      H      -7.1988212686    -2.9069462716     1.5336044581
  104      H      -6.2868532240    -4.3532578173     1.5223706534
  105      C      -5.9364347505    -3.0027364458    -0.2369800560
  106      C      -5.4278272851    -3.9626292715    -1.3054664663
  107      C      -6.2983576517    -4.3264762589    -2.4210081512
  108      H      -7.2925739566    -3.8895139114    -2.4296595082
  109      C      -5.7878095881    -5.2749152427    -3.3088843637
  110      H      -6.3791187044    -5.5219079174    -4.1864731897
  111      C      -4.5779172736    -5.9350087227    -3.0782457174
  112      H      -4.2841010993    -6.7084350565    -3.7820679691
  113      C      -3.7597238895    -5.5563675161    -2.0519619249
  114      H      -2.8231430459    -6.0396369641    -1.7919446870
  115      C      -4.1018726143    -4.5835705874    -1.1456913330
  116      H      -3.3834132903    -4.3737624290    -0.3589602884
  117      C      -1.4500668195    -0.0351539300    -1.3755672507
  118      C      -3.0450279192     0.6193352668    -3.0698139807
  119      C      -3.7776138910     4.8673536492    -1.4237135534
  120      C      -3.6659230428     0.6038573757     3.2267473571
  121      C      -6.7672788305     3.8850726606     0.0596170263
  122      C      -2.4970579300    -0.3894647280    -2.2599192581
  123      C      -5.4402206224     2.7372380686     3.1979217059
  124      C      -1.6454941956     3.4787346205    -1.5994542654
  125      C      -6.7493656706     0.3952480048    -1.7931015142
  126      C      -5.0262537809     0.3293531295     3.2095223254
  127      C      -6.0929809374    -1.4894680791    -0.4668781676
  128      C      -7.2924407746     0.5478389755    -0.5395834940
  129      C      -6.9122148345     1.0654127015     2.1511390247
  130      C      -5.9068000241     3.7318156939     2.3241654418
  131      C      -4.7632784102    -0.6756378581    -2.4553256928
  132      C      -4.6929970404     5.0067728123     0.5699363624
  133      C      -4.8896929661    -1.9435312619     0.1159165511
  134      C      -4.5246350585    -1.5797326254     1.5619073105
  135      C      -5.7126740192     4.6706115336    -0.3224488984
  136      C      -1.5296599931     3.0106807268     1.8592885684
  137      C      -2.3970690411     4.5674166976     0.4804554891
  138      C      -1.3956482381     3.8414229974    -0.2205677077
  139      C      -1.3921714772     2.2528628473    -2.2185923727
  140      C      -3.2319921253    -1.1939064500     1.6069673764
  141      C      -5.9734189955    -0.7916343422    -1.8136454146
  142      C      -2.4914898448     1.9301459025    -2.9981126740
  143      C      -5.8985576629     1.4202041886     3.1017452203
  144      C      -4.4322984838     0.4416947073    -3.2284273851
  145      C      -7.5175687154     1.8271993837    -0.0014948804
  146      C      -1.6468755851     0.5526438148     2.1374037314
  147      C      -2.8839356683     4.0272234800    -2.1158259238
  148      C      -6.9305833362    -0.5027378861     0.2944941117
  149      C      -0.8000405150     1.5236610515     0.0983868384
  150      C      -7.4554348376     2.0726522052     1.3722926918
  151      C      -6.4247803302     1.5215533335    -2.5400383678
  152      C      -3.6162547435     4.0404290836     2.5143051093
  153      C      -3.9792217206     2.9544217227     3.2989636246
  154      C      -6.7061225409     2.8382104966    -2.0796923291
  155      C      -2.7290033423    -0.2518455983     2.5563527754
  156      C      -5.4548181826    -0.7017163910     2.2443740480
  157      C      -1.9424174348     1.8698791331     2.5435553425
  158      C      -3.6292054028    -1.6952724246    -0.5658866849
  159      C      -4.7541665605     2.8732646074    -3.2903851307
  160      C      -6.6005552637    -0.1788115265     1.6224166188
  161      C      -7.1769997343     2.9445714821    -0.7939369054
  162      C      -1.1355644289     0.4441044523     0.8470277752
  163      C      -5.1271373249     4.6036588708    -1.6235073601
  164      C      -0.9466857830     1.2682296610    -1.3129274321
  165      C      -3.5196918909     5.1328776226    -0.1348150852
  166      C      -5.2720587028     1.5638132473    -3.3137488753
  167      C      -5.6152566864     3.5938433143    -2.4824648857
  168      C      -3.5707225143    -1.1673772707    -1.8549718094
  169      C      -2.6595388576    -1.3470402431     0.3679624137
  170      C      -2.4217380193     4.0947336395     1.8028609368
  171      C      -3.3669524152     3.0562761818    -3.0588323746
  172      C      -6.8941414695     3.3476987643     1.3845819943
  173      C      -3.1091461305     1.8753999052     3.2862205912
  174      C      -4.7906820982     4.5097950324     1.8894403281
  175      C      -1.5746114898    -0.5417954499    -0.0502174873
  176      C      -0.9000096261     2.7918729867     0.6014043972
 ----------------------------------------------------------------

    9   -5804.2261641900      9.08E-06 Convergence criterion met
 Total energy in the final basis set = -5804.2261641900

                    Orbital Energies (a.u.)
 --------------------------------------------------------------

 Alpha MOs
 -- Occupied --
-19.205 -19.185 -19.153 -19.134 -10.337 -10.320 -10.248 -10.241
-10.241 -10.241 -10.233 -10.232 -10.232 -10.232 -10.230 -10.230
-10.229 -10.229 -10.225 -10.225 -10.225 -10.225 -10.224 -10.224
-10.224 -10.223 -10.223 -10.222 -10.222 -10.222 -10.221 -10.221
-10.221 -10.221 -10.221 -10.221 -10.221 -10.221 -10.221 -10.220
-10.220 -10.220 -10.220 -10.219 -10.219 -10.219 -10.219 -10.217
-10.217 -10.217 -10.217 -10.217 -10.217 -10.217 -10.216 -10.216
-10.216 -10.216 -10.216 -10.216 -10.216 -10.216 -10.216 -10.215
-10.215 -10.215 -10.215 -10.215 -10.215 -10.215 -10.214 -10.214
-10.214 -10.214 -10.214 -10.214 -10.214 -10.213 -10.213 -10.213
-10.213 -10.213 -10.213 -10.213 -10.212 -10.212 -10.212 -10.212
-10.212 -10.212 -10.212 -10.211 -10.211 -10.211 -10.211 -10.211
-10.211 -10.211 -10.211 -10.211 -10.211 -10.210 -10.210 -10.210
-10.210 -10.210 -10.210 -10.210 -10.209 -10.209 -10.209 -10.209
-10.208 -10.208 -10.208 -10.208 -10.208 -10.208 -10.208 -10.208
-10.207 -10.207 -10.207 -10.207 -10.207 -10.206 -10.206 -10.206
-10.206 -10.205 -10.205 -10.205 -10.205 -10.204 -10.204 -10.204
-10.203 -10.203 -10.201 -10.200 -10.198 -10.197 -10.197 -10.197
-10.196 -10.196 -10.196 -10.194  -1.107  -1.082  -1.020  -1.005
 -0.988  -0.979  -0.972  -0.968  -0.963  -0.961  -0.959  -0.958
 -0.942  -0.932  -0.929  -0.928  -0.926  -0.925  -0.922  -0.921
 -0.918  -0.914  -0.899  -0.896  -0.891  -0.890  -0.885  -0.879
 -0.877  -0.868  -0.857  -0.848  -0.847  -0.844  -0.840  -0.840
 -0.836  -0.832  -0.825  -0.818  -0.813  -0.806  -0.799  -0.799
 -0.798  -0.797  -0.794  -0.792  -0.789  -0.788  -0.786  -0.781
 -0.776  -0.771  -0.770  -0.767  -0.765  -0.764  -0.763  -0.760
 -0.759  -0.747  -0.747  -0.740  -0.737  -0.730  -0.719  -0.717
 -0.715  -0.714  -0.713  -0.713  -0.711  -0.710  -0.709  -0.709
 -0.706  -0.706  -0.704  -0.703  -0.702  -0.701  -0.677  -0.670
 -0.663  -0.661  -0.655  -0.653  -0.652  -0.646  -0.632  -0.630
 -0.629  -0.627  -0.626  -0.623  -0.622  -0.621  -0.619  -0.618
 -0.617  -0.615  -0.614  -0.613  -0.612  -0.611  -0.608  -0.608
 -0.605  -0.605  -0.604  -0.598  -0.572  -0.564  -0.563  -0.562
 -0.561  -0.559  -0.558  -0.557  -0.556  -0.554  -0.551  -0.549
 -0.541  -0.535  -0.533  -0.531  -0.530  -0.528  -0.525  -0.524
 -0.523  -0.522  -0.519  -0.519  -0.515  -0.515  -0.513  -0.509
 -0.509  -0.508  -0.504  -0.501  -0.500  -0.492  -0.492  -0.489
 -0.486  -0.484  -0.483  -0.482  -0.481  -0.479  -0.477  -0.475
 -0.473  -0.472  -0.472  -0.470  -0.470  -0.468  -0.468  -0.465
 -0.465  -0.464  -0.463  -0.463  -0.462  -0.460  -0.459  -0.457
 -0.457  -0.455  -0.454  -0.454  -0.448  -0.446  -0.446  -0.445
 -0.442  -0.441  -0.441  -0.440  -0.439  -0.437  -0.436  -0.433
 -0.433  -0.432  -0.431  -0.430  -0.430  -0.426  -0.425  -0.424
 -0.422  -0.422  -0.421  -0.421  -0.421  -0.419  -0.418  -0.417
 -0.417  -0.415  -0.415  -0.414  -0.412  -0.412  -0.411  -0.411
 -0.410  -0.410  -0.408  -0.406  -0.402  -0.400  -0.399  -0.397
 -0.394  -0.393  -0.392  -0.391  -0.390  -0.389  -0.387  -0.382
 -0.380  -0.377  -0.375  -0.373  -0.372  -0.369  -0.367  -0.366
 -0.365  -0.364  -0.363  -0.363  -0.360  -0.359  -0.357  -0.357
 -0.357  -0.356  -0.355  -0.354  -0.352  -0.351  -0.351  -0.350
 -0.349  -0.348  -0.346  -0.346  -0.344  -0.343  -0.343  -0.342
 -0.341  -0.341  -0.339  -0.338  -0.337  -0.337  -0.336  -0.335
 -0.334  -0.332  -0.331  -0.330  -0.326  -0.325  -0.324  -0.321
 -0.303  -0.302  -0.295  -0.295  -0.293  -0.287  -0.281  -0.273
 -0.272  -0.271  -0.269  -0.268  -0.268  -0.267  -0.265  -0.263
 -0.263  -0.262  -0.260  -0.259  -0.257  -0.256  -0.252  -0.251
 -0.250  -0.245  -0.242  -0.241  -0.224  -0.220  -0.217  -0.213
 -0.208  -0.206  -0.205  -0.202  -0.201  -0.197

          Ground-State Mulliken Net Atomic Charges

     Atom                 Charge (a.u.)
  ----------------------------------------
      1 O                    -0.487882
      2 C                    -0.077365
      3 H                     0.119169
      4 H                     0.126860
      5 H                     0.125245
      6 O                    -0.463004
      7 C                     0.617715
      8 C                    -0.266946
      9 H                     0.134557
     10 H                     0.133105
     11 C                    -0.181422
     12 H                     0.122215
     13 H                     0.103867
     14 C                    -0.195800
     15 H                     0.098782
     16 H                     0.111000
     17 C                     0.046122
     18 C                     0.049065
     19 C                    -0.084608
     20 H                     0.132478
     21 C                    -0.108621
     22 H                     0.090292
     23 C                    -0.083073
     24 H                     0.088770
     25 C                    -0.092119
     26 H                     0.091889
     27 C                    -0.100900
     28 H                     0.093712
     29 C                     0.006467
     30 C                     0.002337
     31 C                    -0.009969
     32 C                    -0.011989
     33 C                    -0.017945
     34 C                     0.011577
     35 C                    -0.021475
     36 C                    -0.011239
     37 C                    -0.032655
     38 C                     0.025802
     39 C                    -0.075080
     40 C                     0.005021
     41 C                     0.014840
     42 C                     0.013680
     43 C                     0.013363
     44 C                    -0.020775
     45 C                    -0.074952
     46 C                    -0.024722
     47 C                     0.021398
     48 C                    -0.004649
     49 C                    -0.003424
     50 C                     0.007691
     51 C                    -0.027914
     52 C                    -0.001942
     53 C                     0.053592
     54 C                     0.019543
     55 C                     0.003251
     56 C                    -0.020136
     57 C                     0.002037
     58 C                     0.024095
     59 C                     0.049357
     60 C                     0.054812
     61 C                    -0.030379
     62 C                    -0.025477
     63 C                    -0.024329
     64 C                     0.033026
     65 C                    -0.015582
     66 C                     0.033833
     67 C                    -0.032756
     68 C                     0.004098
     69 C                     0.006796
     70 C                     0.021726
     71 C                    -0.035864
     72 C                    -0.028388
     73 C                     0.023952
     74 C                     0.008232
     75 C                    -0.011549
     76 C                     0.004391
     77 C                    -0.000923
     78 C                     0.024494
     79 C                    -0.014207
     80 C                    -0.014547
     81 C                     0.027793
     82 C                     0.001284
     83 C                    -0.010360
     84 C                    -0.001177
     85 C                    -0.013518
     86 C                    -0.021061
     87 C                    -0.013138
     88 C                    -0.017380
     89 O                    -0.446096
     90 C                    -0.094067
     91 H                     0.126636
     92 H                     0.145296
     93 H                     0.123652
     94 O                    -0.495687
     95 C                     0.600980
     96 C                    -0.262309
     97 H                     0.125712
     98 H                     0.135821
     99 C                    -0.182729
    100 H                     0.122935
    101 H                     0.103941
    102 C                    -0.192439
    103 H                     0.123181
    104 H                     0.111693
    105 C                     0.010216
    106 C                     0.037878
    107 C                    -0.079514
    108 H                     0.096580
    109 C                    -0.105253
    110 H                     0.090202
    111 C                    -0.070072
    112 H                     0.090684
    113 C                    -0.087608
    114 H                     0.090101
    115 C                    -0.089099
    116 H                     0.096482
    117 C                    -0.015701
    118 C                    -0.002665
    119 C                     0.000503
    120 C                     0.014902
    121 C                     0.004055
    122 C                    -0.013978
    123 C                    -0.000963
    124 C                     0.003405
    125 C                     0.018781
    126 C                    -0.036638
    127 C                    -0.085996
    128 C                     0.024553
    129 C                    -0.008855
    130 C                    -0.014253
    131 C                     0.011977
    132 C                     0.004075
    133 C                    -0.093495
    134 C                    -0.003834
    135 C                    -0.007531
    136 C                    -0.024425
    137 C                     0.033198
    138 C                    -0.033248
    139 C                    -0.030779
    140 C                     0.044778
    141 C                     0.002439
    142 C                     0.024014
    143 C                     0.015699
    144 C                     0.001254
    145 C                    -0.002592
    146 C                    -0.025318
    147 C                     0.008331
    148 C                     0.013244
    149 C                     0.055694
    150 C                    -0.034811
    151 C                    -0.002850
    152 C                     0.009395
    153 C                    -0.035263
    154 C                    -0.019787
    155 C                    -0.028657
    156 C                    -0.016656
    157 C                     0.021914
    158 C                     0.033112
    159 C                    -0.020785
    160 C                     0.042899
    161 C                     0.030439
    162 C                     0.031836
    163 C                    -0.001987
    164 C                     0.013500
    165 C                    -0.004924
    166 C                    -0.008092
    167 C                     0.016281
    168 C                     0.014327
    169 C                     0.007176
    170 C                     0.020615
    171 C                    -0.010936
    172 C                    -0.004800
    173 C                     0.025235
    174 C                    -0.003241
    175 C                    -0.036462
    176 C                    -0.037314
  ----------------------------------------
  Sum of atomic charges =     0.000000

                    Cartesian Multipole Moments
 -----------------------------------------------------------------
    Charge (ESU x 10^10)
                 0.0000
    Dipole Moment (Debye)
         X      -3.7567      Y      -3.3844      Z      -0.2720
       Tot       5.0637
    Quadrupole Moments (Debye-Ang)
        XX    -809.8732     XY       2.9128     YY    -794.2309
        XZ      24.3227     YZ       7.8531     ZZ    -804.0017

 Total job time:  894.77s(wall), 8584.60s(cpu)
        *  Thank you very much for using Q-Chem.  Have a nice day.  *
