 Q-Chem 4.4, Q-Chem, Inc., Pleasanton, CA (2016)
 Q-Chem 4.4.2 for Intel X86 Linux

User input:
--------------------------------------------------------------
$comment
SP
$end

$rem
MEM_STATIC 5000
MEM_TOTAL 20000
JOBTYPE SP
EXCHANGE B3LYP
BASIS 6-31g(d,p)
$end

$molecule
0 1
O         -10.747000      6.368000     -1.480000
C         -11.336000      7.367000     -2.331000
H         -12.049000      7.948000     -1.732000
H         -11.897000      6.799000     -3.082000
H         -10.574000      8.031000     -2.759000
O         -12.825000      5.823000     -0.407000
C         -11.609000      5.586000     -0.654000
C         -10.789000      4.542000      0.028000
H         -10.194000      4.968000      0.845000
H         -10.162000      4.059000     -0.732000
C         -11.605000      3.425000      0.758000
H         -12.024000      3.832000      1.687000
H         -12.414000      3.130000      0.079000
C         -10.735000      2.136000      1.018000
H         -10.451000      1.716000      0.046000
H          -9.819000      2.512000      1.490000
C         -11.363000      1.120000      2.032000
C         -12.517000      0.393000      1.390000
C         -12.352000     -0.798000      0.651000
H         -11.339000     -1.187000      0.688000
C         -13.401000     -1.358000     -0.077000
H         -13.223000     -2.371000     -0.425000
C         -14.684000     -0.819000      0.029000
H         -15.496000     -1.404000     -0.393000
C         -14.876000      0.372000      0.709000
H         -15.866000      0.804000      0.818000
C         -13.814000      0.956000      1.413000
H         -14.098000      1.763000      2.083000
C         -13.663000      0.605000      6.903000
C         -12.792000     -1.640000      6.407000
C          -9.351000     -1.558000      9.360000
C          -9.885000      4.081000      6.451000
C          -6.917000     -0.717000      7.058000
C         -13.411000     -0.463000      5.975000
C          -7.529000      2.833000      7.192000
C         -11.616000     -0.737000      9.534000
C          -9.556000     -1.415000      4.021000
C          -9.063000      3.619000      5.490000
C         -10.532000      0.496000      3.104000
C          -8.532000     -0.471000      3.905000
C          -7.624000      1.921000      4.919000
C          -6.898000      1.615000      7.602000
C         -11.921000     -1.131000      4.408000
C          -7.697000     -0.009000      9.196000
C         -11.482000      1.590000      3.448000
C         -10.907000      2.810000      4.152000
C          -7.473000     -1.057000      8.244000
C         -10.729000      2.713000      9.492000
C          -9.789000      0.758000     10.193000
C         -11.159000      0.502000     10.066000
C         -12.680000     -0.778000      8.675000
C         -11.802000      3.176000      5.173000
C         -10.775000     -0.852000      3.661000
C         -12.469000     -1.875000      7.796000
C          -7.869000      2.967000      5.815000
C         -11.897000     -2.079000      5.424000
C          -7.540000     -0.484000      4.881000
C         -11.739000      3.544000      7.552000
C         -10.682000     -1.764000      9.188000
C          -9.068000      0.758000      3.404000
C         -12.812000      1.693000      8.717000
C          -6.960000      0.729000      5.319000
C          -9.552000     -2.407000      5.057000
C          -8.320000      2.368000      9.234000
C          -8.343000      3.362000      8.230000
C          -8.469000     -2.411000      5.999000
C         -11.261000      3.775000      6.314000
C          -9.553000      2.986000      4.393000
C         -10.731000      3.708000      8.503000
C         -12.590000      1.234000      4.356000
C         -10.392000     -2.954000      7.118000
C          -8.675000      1.988000      3.998000
C          -7.467000     -1.399000      5.917000
C         -12.778000      2.625000      7.638000
C          -8.455000     -2.080000      8.346000
C         -13.280000      0.446000      8.231000
C          -8.910000     -0.314000      9.819000
C         -10.703000     -2.794000      5.768000
C          -8.998000     -2.711000      7.226000
C         -12.887000     -0.108000      4.750000
C         -12.767000      2.184000      5.280000
C          -9.542000      2.084000      9.915000
C         -11.289000     -2.505000      8.110000
C          -6.610000      0.588000      6.709000
C          -9.532000      3.978000      7.830000
C          -7.450000      1.325000      8.847000
C         -13.350000      1.907000      6.554000
C         -11.716000      1.709000      9.636000
O           3.821000      7.813000      8.763000
C           3.873000      6.674000      9.629000
H           3.772000      5.752000      9.043000
H           3.184000      6.674000     10.482000
H           4.920000      6.674000      9.958000
O           3.703000      9.220000     10.554000
C           3.795000      9.023000      9.332000
C           3.762000     10.172000      8.321000
H           3.416000      9.739000      7.375000
H           4.821000     10.422000      8.183000
C           2.880000     11.324000      8.702000
H           3.178000     11.801000      9.644000
H           3.125000     12.103000      7.971000
C           1.356000     11.047000      8.770000
H           1.341000     10.191000      9.455000
H           0.857000     11.828000      9.357000
C           0.641000     10.664000      7.449000
C           0.682000     11.751000      6.382000
C           1.872000     11.897000      5.547000
H           2.692000     11.211000      5.738000
C           1.862000     12.969000      4.653000
H           2.701000     13.071000      3.970000
C           0.840000     13.922000      4.645000
H           0.941000     14.763000      3.965000
C          -0.282000     13.750000      5.405000
H          -1.101000     14.459000      5.475000
C          -0.440000     12.699000      6.274000
H          -1.365000     12.669000      6.842000
C          -4.001000      9.030000      4.997000
C          -2.243000      8.016000      3.684000
C          -3.051000      3.687000      5.062000
C          -3.274000      7.709000      9.919000
C          -0.394000      3.799000      7.305000
C          -2.708000      9.114000      4.427000
C          -2.148000      5.181000     10.123000
C          -4.646000      5.598000      4.506000
C           0.943000      7.212000      5.830000
C          -1.931000      7.611000     10.255000
C           0.465000      9.170000      7.126000
C           1.090000      6.889000      7.158000
C          -0.085000      6.425000      9.619000
C          -1.739000      4.120000      9.300000
C          -0.471000      8.790000      4.810000
C          -2.743000      3.259000      7.196000
C          -0.693000      9.914000      7.441000
C          -1.496000      9.625000      8.717000
C          -1.478000      3.333000      6.610000
C          -5.523000      5.994000      7.863000
C          -4.752000      4.297000      6.597000
C          -5.324000      5.281000      5.745000
C          -4.415000      6.862000      3.959000
C          -2.811000      9.597000      8.414000
C           0.523000      8.563000      5.732000
C          -3.108000      6.899000      3.500000
C          -1.364000      6.330000     10.261000
C          -0.863000      7.821000      3.881000
C           0.840000      5.583000      7.615000
C          -4.866000      8.324000      8.385000
C          -3.496000      4.752000      4.255000
C           0.803000      7.977000      7.973000
C          -5.378000      7.665000      6.122000
C           0.368000      5.329000      8.905000
C           0.548000      6.232000      4.927000
C          -4.003000      4.429000      8.904000
C          -3.592000      5.359000      9.849000
C           0.361000      4.877000      5.319000
C          -3.761000      8.800000      9.124000
C          -1.024000      8.514000      9.520000
C          -5.026000      6.966000      8.728000
C          -1.757000     10.028000      6.456000
C          -1.159000      5.394000      3.676000
C           0.073000      7.720000      9.147000
C           0.444000      4.617000      6.665000
C          -4.985000      8.597000      7.025000
C          -1.674000      3.586000      5.218000
C          -4.815000      7.907000      4.817000
C          -3.689000      3.468000      6.221000
C          -0.340000      6.518000      3.898000
C          -0.744000      4.450000      4.598000
C          -1.614000      9.567000      5.148000
C          -2.989000      9.928000      7.093000
C          -4.949000      4.713000      7.924000
C          -2.559000      5.582000      3.549000
C          -0.480000      4.250000      8.665000
C          -4.129000      6.631000      9.726000
C          -2.865000      3.679000      8.540000
C          -4.097000      9.452000      6.354000
C          -5.733000      6.404000      6.516000
$end

--------------------------------------------------------------

             Standard Nuclear Orientation (Angstroms)
    I     Atom           X                Y                Z
 ----------------------------------------------------------------
    1      O       3.9275121691    -8.3806086445     0.0012125007
    2      C       3.9675198235    -9.7207124710     0.5224073986
    3      H       4.1087467903    -9.6599353396     1.6091880040
    4      H       4.8666750867   -10.1656257234     0.0809121999
    5      H       3.0453962374   -10.2696821270     0.2920936805
    6      O       5.7322330445    -7.6133749245     1.3871320440
    7      C       4.9322531600    -7.4584154051     0.4218063312
    8      C       4.7602915404    -6.1907755541    -0.3469448700
    9      H       3.9043885200    -5.6110304864     0.0195461616
   10      H       4.6583652618    -6.4532640725    -1.4074771946
   11      C       5.9358350989    -5.1673014929    -0.2163953086
   12      H       5.8865863430    -4.6837472593     0.7674750401
   13      H       6.8658428520    -5.7413592361    -0.3063413296
   14      C       5.9333710202    -4.1159875696    -1.3914501852
   15      H       6.1055162343    -4.6552955708    -2.3302541611
   16      H       4.9049937474    -3.7353262408    -1.4188935353
   17      C       6.8534928996    -2.8704658312    -1.1529395436
   18      C       8.3020065694    -3.2592370097    -1.3048412192
   19      C       8.9733239406    -3.2308040230    -2.5459502202
   20      H       8.3768485914    -2.8005346457    -3.3446644500
   21      C      10.2559362352    -3.7566220115    -2.6956370421
   22      H      10.7506565095    -3.4908735653    -3.6249306521
   23      C      10.9597696531    -4.1978211064    -1.5741166997
   24      H      12.0162183527    -4.4087648389    -1.7122177016
   25      C      10.3198103587    -4.2808077720    -0.3488370113
   26      H      10.8492227083    -4.6068211116     0.5411308907
   27      C       9.0169436898    -3.7848118463    -0.2037767319
   28      H       8.6725591815    -3.6966726037     0.8230805047
   29      C       8.1961498504     1.0075828495     2.3740814009
   30      C       8.8647912168     1.9199764325     0.1911616423
   31      C       5.5705375733     5.0192560516    -0.1401581044
   32      C       3.2448823740    -0.4149701813     2.2275984592
   33      C       3.5119836556     3.1439952722    -2.1838297456
   34      C       8.7581326866     0.8320999260     1.0630920663
   35      C       1.9468972306     1.3089878303     0.4953962938
   36      C       6.8900505674     4.2965723181     1.7495920590
   37      C       6.5291174985     0.4492846654    -2.7409043542
   38      C       3.0073325065    -0.8176685863     0.9650403200
   39      C       6.3680157764    -1.4912473719    -1.4549153779
   40      C       5.1849803628     0.0681920032    -2.7760005552
   41      C       2.9187500861    -0.1375827612    -1.2280402589
   42      C       2.0710271406     2.4019572957    -0.4210067360
   43      C       8.2017252930     0.1609936500    -1.0254098319
   44      C       3.3817277808     4.4107444502    -0.1691119175
   45      C       6.4473701654    -1.9538541740    -0.0416320278
   46      C       5.1710293054    -1.8808683160     0.7831516248
   47      C       3.9586675140     4.1994331332    -1.4642073084
   48      C       4.2076013850     2.6609600727     3.4289585962
   49      C       4.4582613782     4.4367696630     2.0215866245
   50      C       5.7257821721     4.1930172249     2.5624570210
   51      C       7.9087639813     3.3914425995     1.8705101005
   52      C       5.5123638749    -1.3930587603     2.0571039587
   53      C       7.2442649155    -0.3806106195    -1.8851193414
   54      C       8.5122462547     3.2637125774     0.5898598020
   55      C       2.3690050212     0.0238879038     0.0481511797
   56      C       8.5590579343     1.5014411750    -1.1093730163
   57      C       4.2358272390     1.0845943595    -2.8293259482
   58      C       4.8605751040     0.4155758831     3.5072922653
   59      C       6.7854735416     4.7198913540     0.3869968735
   60      C       4.9932007548    -1.0877024211    -1.9538894545
   61      C       6.5917457024     2.1292058673     3.5430083173
   62      C       3.0031245404     0.9401542468    -2.1516873198
   63      C       6.9244429111     1.8251288934    -2.8311621983
   64      C       2.5134603478     3.0969568994     1.7176249312
   65      C       2.1269938054     1.7430546258     1.8366763693
   66      C       5.9026462270     2.8264222946    -2.9478329353
   67      C       4.5475158097    -0.6425240728     2.7346944647
   68      C       3.9434989817    -1.5039554476     0.2601994338
   69      C       3.8012398893     1.3231932220     3.5447177776
   70      C       7.3920341259    -1.2307841684     0.8322351068
   71      C       7.5742244630     3.6615069762    -1.6236732867
   72      C       3.8753038264    -1.1474683335    -1.0781500565
   73      C       4.5316244599     2.4343938121    -2.9092974554
   74      C       6.2073503594     0.7558168721     3.5510013121
   75      C       5.3166540123     4.6177474776    -1.5104974793
   76      C       7.7618837919     2.2731062211     2.7554179797
   77      C       4.4282267894     4.8490535976     0.6465153970
   78      C       7.9537180312     2.3912690468    -2.0564564130
   79      C       6.2980014791     3.9008105653    -2.1963317254
   80      C       8.3349437453    -0.2699000084     0.3505380229
   81      C       6.8381148990    -0.9831770122     2.0236498903
   82      C       3.5456348140     3.5710997385     2.5822089003
   83      C       7.8743560497     4.0820155061    -0.3109023215
   84      C       2.5748665615     2.2416727358    -1.7076988894
   85      C       2.7942429015     0.8584065026     2.6883531518
   86      C       2.4761650227     3.4816999769     0.3592804156
   87      C       7.2559346319     0.1079839567     2.8449223241
   88      C       5.5518229481     3.1035698307     3.4196854408
   89      O     -10.2777614868     2.2904229888    -1.8890208831
   90      C      -9.8088398738     3.6094531067    -2.1894423686
   91      H      -9.1032146254     3.5748639923    -3.0288335777
   92      H      -9.3955882904     4.1858703313    -1.3532029818
   93      H     -10.7034533059     4.0899809661    -2.6056271635
   94      O     -11.2831983428     3.0381307699     0.0165718863
   95      C     -11.0436798416     2.1376678752    -0.8034003467
   96      C     -11.5097981998     0.6962089008    -0.5835351575
   97      H     -10.8286414023     0.0613744201    -1.1624406760
   98      H     -12.4807015630     0.6607011622    -1.0925644885
   99      C     -11.5243507210     0.2480173383     0.8479331612
  100      H     -12.1915281080     0.8474341730     1.4798119411
  101      H     -12.0475691642    -0.7147010929     0.8225819711
  102      C     -10.1531408574     0.1475313499     1.5646025942
  103      H      -9.7629144035     1.1567122789     1.3872239959
  104      H     -10.2963841457     0.1374849410     2.6522199120
  105      C      -9.1428445407    -0.8985923724     1.0280566874
  106      C      -9.6236582164    -2.3403363996     1.1372874950
  107      C     -10.5257873277    -2.8783050769     0.1217119100
  108      H     -10.8223604812    -2.2046581051    -0.6768625211
  109      C     -10.9854397867    -4.1779722901     0.3410398649
  110      H     -11.6054726451    -4.6354781297    -0.4251596269
  111      C     -10.7097200962    -4.8759853190     1.5198161218
  112      H     -11.1612198965    -5.8563602002     1.6418612886
  113      C      -9.8349829994    -4.3738617395     2.4411059363
  114      H      -9.5952145604    -4.8413077222     3.3910255902
  115      C      -9.2483766601    -3.1389087770     2.3165660505
  116      H      -8.5816896637    -2.8313444755     3.1166170796
  117      C      -4.0770651248    -3.0174464255     1.3086995406
  118      C      -4.6920321479    -3.2458273675    -1.0177541353
  119      C      -1.7884536510    -0.0273692438    -2.5997617896
  120      C      -4.7112418042     1.9132381803     2.6450465231
  121      C      -4.3539409696     2.3096841645    -2.8440939101
  122      C      -5.0698381923    -3.2820806842     0.3349565839
  123      C      -4.1999996974     3.6056305310     0.5061880332
  124      C      -1.5117873190    -1.7883524321    -0.7756247467
  125      C      -7.1413871050    -0.4144019249    -2.1950469014
  126      C      -5.7884990889     2.5082498839     2.0034650279
  127      C      -8.0923419717    -0.4341326421     0.0043074449
  128      C      -7.2921816520     0.8890802798    -1.7855140619
  129      C      -6.4866208021     2.9507144637    -0.1262436774
  130      C      -3.7853105355     3.5450624780    -0.8334743906
  131      C      -6.7430803571    -2.3557229424    -0.9291462569
  132      C      -2.1405760127     2.0345124147    -1.9239971349
  133      C      -7.6406443007    -0.7817805847     1.2961414597
  134      C      -7.0396375738     0.2739516266     2.2346117109
  135      C      -3.1025119340     1.7561617631    -2.8967752175
  136      C      -1.5853511602     0.6372524708     1.7356345423
  137      C      -1.0241449557     0.6053681271    -0.4463455183
  138      C      -0.9890261582    -0.7245090910     0.0551893808
  139      C      -2.3319025666    -2.8497852554    -0.3869895162
  140      C      -5.9180660069    -0.2231831051     2.7974192080
  141      C      -7.5623381322    -1.2738942302    -1.1484914992
  142      C      -3.3271920112    -2.9948407168    -1.3402244477
  143      C      -5.5105969297     3.2838550698     0.8704632690
  144      C      -5.7206019162    -2.7096448883    -1.8151163998
  145      C      -6.4179756798     1.8932684710    -2.2375704687
  146      C      -3.5338023348     0.0033705016     3.1265927261
  147      C      -1.9091064969    -1.3363829222    -2.0943658255
  148      C      -7.8189855966     0.9530761239    -0.5014890871
  149      C      -2.3737730688    -1.6470422676     1.8044490903
  150      C      -6.1050839961     3.0077826887    -1.4556773476
  151      C      -6.1144616149    -0.7415541353    -3.0726740825
  152      C      -2.0796608565     2.6102614134     0.4294187727
  153      C      -3.0976688334     3.0013400019     1.2882338265
  154      C      -5.2520926800     0.2459852636    -3.6256150881
  155      C      -4.8150420072     0.5926020300     3.1969710437
  156      C      -6.9136445408     1.6086044200     1.6825775844
  157      C      -2.6833532911     0.9568673051     2.5307796097
  158      C      -6.6900880902    -1.8718207698     1.4496741455
  159      C      -4.0584160242    -1.6902741319    -3.3044086214
  160      C      -7.2781949949     1.9215707868     0.3626802325
  161      C      -5.3905595712     1.5194890853    -3.1304182220
  162      C      -3.3715843414    -1.2955874704     2.6525848047
  163      C      -2.8617587467     0.4256404956    -3.3570360779
  164      C      -2.7503905959    -2.7500030312     0.9558061782
  165      C      -1.3408463941     0.9271505968    -1.7710123598
  166      C      -5.3965688325    -1.9221942150    -2.9316068824
  167      C      -4.0018876685    -0.3534334374    -3.6552739837
  168      C      -6.3261116956    -2.6982025664     0.3873896684
  169      C      -5.7481147415    -1.5310363308     2.4141144892
  170      C      -1.3220928201     1.4601390069     0.6276134255
  171      C      -3.0212610884    -2.1683650078    -2.4634497914
  172      C      -4.7664830751     3.1958229688    -1.7929212170
  173      C      -3.3753046816     2.1386146181     2.3370928484
  174      C      -2.5038228389     2.9161657849    -0.8807526390
  175      C      -4.4644663688    -2.1208579320     2.3454243592
  176      C      -1.4307156991    -0.7392406286     1.4070563606
 ----------------------------------------------------------------

    9   -5804.2447932316      9.65E-06 Convergence criterion met
 Total energy in the final basis set = -5804.2447932316

                    Orbital Energies (a.u.)
 --------------------------------------------------------------

 Alpha MOs
 -- Occupied --
-19.203 -19.190 -19.147 -19.132 -10.328 -10.318 -10.246 -10.243
-10.239 -10.238 -10.238 -10.236 -10.236 -10.229 -10.229 -10.229
-10.228 -10.227 -10.223 -10.222 -10.222 -10.222 -10.221 -10.221
-10.221 -10.221 -10.220 -10.220 -10.220 -10.220 -10.220 -10.220
-10.220 -10.219 -10.219 -10.219 -10.219 -10.219 -10.219 -10.218
-10.218 -10.218 -10.218 -10.218 -10.218 -10.218 -10.217 -10.217
-10.217 -10.216 -10.216 -10.216 -10.216 -10.215 -10.215 -10.215
-10.215 -10.215 -10.215 -10.215 -10.215 -10.214 -10.214 -10.214
-10.214 -10.214 -10.214 -10.214 -10.214 -10.214 -10.214 -10.214
-10.214 -10.214 -10.214 -10.214 -10.214 -10.213 -10.213 -10.213
-10.213 -10.213 -10.213 -10.213 -10.213 -10.213 -10.213 -10.213
-10.212 -10.212 -10.212 -10.212 -10.212 -10.212 -10.212 -10.212
-10.212 -10.212 -10.212 -10.211 -10.211 -10.211 -10.211 -10.211
-10.211 -10.211 -10.210 -10.210 -10.210 -10.210 -10.210 -10.210
-10.209 -10.209 -10.209 -10.209 -10.209 -10.209 -10.209 -10.209
-10.209 -10.208 -10.207 -10.207 -10.207 -10.207 -10.207 -10.207
-10.207 -10.206 -10.205 -10.204 -10.204 -10.204 -10.204 -10.203
-10.202 -10.201 -10.200 -10.197 -10.197 -10.197 -10.196 -10.195
-10.195 -10.195 -10.195 -10.193  -1.105  -1.070  -1.003  -0.999
 -0.985  -0.984  -0.969  -0.966  -0.965  -0.964  -0.960  -0.959
 -0.939  -0.936  -0.927  -0.927  -0.925  -0.924  -0.923  -0.923
 -0.919  -0.919  -0.897  -0.897  -0.890  -0.888  -0.887  -0.884
 -0.875  -0.875  -0.854  -0.854  -0.845  -0.844  -0.842  -0.840
 -0.837  -0.834  -0.823  -0.819  -0.810  -0.803  -0.798  -0.797
 -0.796  -0.796  -0.795  -0.793  -0.791  -0.789  -0.785  -0.784
 -0.774  -0.772  -0.769  -0.768  -0.767  -0.765  -0.762  -0.762
 -0.757  -0.749  -0.744  -0.741  -0.734  -0.729  -0.717  -0.716
 -0.715  -0.714  -0.713  -0.713  -0.712  -0.710  -0.709  -0.708
 -0.707  -0.707  -0.706  -0.705  -0.704  -0.697  -0.674  -0.674
 -0.661  -0.659  -0.658  -0.656  -0.650  -0.644  -0.632  -0.629
 -0.627  -0.626  -0.624  -0.624  -0.623  -0.620  -0.618  -0.617
 -0.616  -0.616  -0.614  -0.612  -0.612  -0.610  -0.610  -0.607
 -0.605  -0.605  -0.603  -0.602  -0.570  -0.564  -0.562  -0.561
 -0.559  -0.558  -0.558  -0.557  -0.556  -0.554  -0.554  -0.552
 -0.538  -0.535  -0.533  -0.532  -0.530  -0.528  -0.525  -0.525
 -0.523  -0.521  -0.521  -0.520  -0.518  -0.517  -0.513  -0.513
 -0.507  -0.505  -0.501  -0.499  -0.499  -0.492  -0.489  -0.489
 -0.486  -0.484  -0.483  -0.481  -0.480  -0.479  -0.477  -0.475
 -0.475  -0.472  -0.471  -0.470  -0.469  -0.469  -0.466  -0.466
 -0.465  -0.463  -0.463  -0.462  -0.461  -0.460  -0.459  -0.458
 -0.455  -0.454  -0.452  -0.451  -0.450  -0.446  -0.444  -0.443
 -0.443  -0.443  -0.440  -0.439  -0.438  -0.436  -0.436  -0.433
 -0.432  -0.430  -0.429  -0.429  -0.428  -0.427  -0.426  -0.423
 -0.423  -0.422  -0.421  -0.420  -0.420  -0.419  -0.419  -0.417
 -0.417  -0.416  -0.415  -0.415  -0.414  -0.413  -0.413  -0.412
 -0.411  -0.409  -0.408  -0.406  -0.399  -0.398  -0.398  -0.396
 -0.394  -0.393  -0.392  -0.391  -0.388  -0.387  -0.385  -0.384
 -0.377  -0.374  -0.372  -0.369  -0.368  -0.367  -0.367  -0.365
 -0.364  -0.363  -0.363  -0.362  -0.361  -0.360  -0.359  -0.358
 -0.356  -0.356  -0.354  -0.354  -0.353  -0.352  -0.352  -0.350
 -0.350  -0.348  -0.347  -0.347  -0.345  -0.344  -0.343  -0.342
 -0.341  -0.340  -0.339  -0.339  -0.338  -0.336  -0.335  -0.334
 -0.333  -0.332  -0.331  -0.330  -0.329  -0.328  -0.323  -0.321
 -0.310  -0.301  -0.299  -0.294  -0.290  -0.286  -0.275  -0.273
 -0.270  -0.270  -0.269  -0.267  -0.266  -0.266  -0.266  -0.265
 -0.264  -0.262  -0.261  -0.260  -0.259  -0.255  -0.255  -0.254
 -0.249  -0.248  -0.246  -0.239  -0.222  -0.218  -0.214  -0.212
 -0.210  -0.209  -0.207  -0.204  -0.199  -0.198

          Ground-State Mulliken Net Atomic Charges

     Atom                 Charge (a.u.)
  ----------------------------------------
      1 O                    -0.487222
      2 C                    -0.079036
      3 H                     0.133364
      4 H                     0.123893
      5 H                     0.126241
      6 O                    -0.478373
      7 C                     0.604232
      8 C                    -0.261577
      9 H                     0.149690
     10 H                     0.130862
     11 C                    -0.182762
     12 H                     0.114003
     13 H                     0.123644
     14 C                    -0.185500
     15 H                     0.110786
     16 H                     0.101422
     17 C                     0.007301
     18 C                     0.090891
     19 C                    -0.102203
     20 H                     0.085557
     21 C                    -0.097614
     22 H                     0.092687
     23 C                    -0.081753
     24 H                     0.091808
     25 C                    -0.087286
     26 H                     0.092900
     27 C                    -0.110195
     28 H                     0.095191
     29 C                    -0.009839
     30 C                     0.000687
     31 C                    -0.008215
     32 C                    -0.013199
     33 C                     0.006167
     34 C                    -0.005730
     35 C                    -0.031159
     36 C                     0.011156
     37 C                     0.001027
     38 C                    -0.005521
     39 C                    -0.115837
     40 C                     0.016807
     41 C                     0.004512
     42 C                     0.021612
     43 C                     0.004763
     44 C                    -0.023762
     45 C                    -0.072926
     46 C                     0.013796
     47 C                    -0.002262
     48 C                     0.030232
     49 C                     0.006393
     50 C                    -0.014158
     51 C                     0.004286
     52 C                    -0.001813
     53 C                     0.043793
     54 C                    -0.011246
     55 C                     0.001061
     56 C                    -0.000683
     57 C                     0.010576
     58 C                     0.037789
     59 C                    -0.000976
     60 C                     0.011250
     61 C                    -0.039008
     62 C                    -0.034890
     63 C                    -0.008615
     64 C                    -0.008053
     65 C                     0.002603
     66 C                    -0.024434
     67 C                     0.008351
     68 C                     0.025396
     69 C                    -0.031535
     70 C                     0.056297
     71 C                     0.009936
     72 C                    -0.006967
     73 C                     0.002671
     74 C                    -0.006930
     75 C                    -0.005978
     76 C                     0.009631
     77 C                     0.020115
     78 C                    -0.017741
     79 C                     0.024395
     80 C                    -0.002127
     81 C                    -0.002299
     82 C                    -0.017282
     83 C                    -0.001212
     84 C                    -0.005084
     85 C                     0.005749
     86 C                     0.018580
     87 C                     0.003314
     88 C                    -0.003068
     89 O                    -0.446072
     90 C                    -0.093881
     91 H                     0.126512
     92 H                     0.145505
     93 H                     0.123131
     94 O                    -0.495271
     95 C                     0.600559
     96 C                    -0.262991
     97 H                     0.126003
     98 H                     0.135276
     99 C                    -0.182085
    100 H                     0.122573
    101 H                     0.103627
    102 C                    -0.192739
    103 H                     0.122940
    104 H                     0.112686
    105 C                     0.010872
    106 C                     0.036221
    107 C                    -0.079057
    108 H                     0.095908
    109 C                    -0.105604
    110 H                     0.089111
    111 C                    -0.070191
    112 H                     0.090256
    113 C                    -0.084578
    114 H                     0.087245
    115 C                    -0.088918
    116 H                     0.099758
    117 C                    -0.006742
    118 C                    -0.003719
    119 C                     0.000107
    120 C                     0.013593
    121 C                     0.003784
    122 C                    -0.011521
    123 C                    -0.001204
    124 C                    -0.001815
    125 C                     0.019426
    126 C                    -0.035104
    127 C                    -0.085292
    128 C                     0.023797
    129 C                    -0.008288
    130 C                    -0.015344
    131 C                     0.009741
    132 C                     0.005444
    133 C                    -0.092949
    134 C                    -0.002547
    135 C                    -0.008920
    136 C                    -0.020242
    137 C                     0.031360
    138 C                    -0.025230
    139 C                    -0.029533
    140 C                     0.046120
    141 C                     0.003324
    142 C                     0.022499
    143 C                     0.015129
    144 C                     0.001386
    145 C                    -0.002792
    146 C                    -0.017891
    147 C                     0.008043
    148 C                     0.013465
    149 C                     0.056073
    150 C                    -0.035784
    151 C                    -0.003228
    152 C                     0.001497
    153 C                    -0.034208
    154 C                    -0.020075
    155 C                    -0.025613
    156 C                    -0.017189
    157 C                     0.020983
    158 C                     0.032888
    159 C                    -0.021162
    160 C                     0.042845
    161 C                     0.030352
    162 C                     0.022463
    163 C                    -0.002280
    164 C                     0.001101
    165 C                    -0.005947
    166 C                    -0.008251
    167 C                     0.014886
    168 C                     0.015094
    169 C                     0.013002
    170 C                     0.026790
    171 C                    -0.012223
    172 C                    -0.003396
    173 C                     0.025551
    174 C                    -0.003831
    175 C                    -0.037038
    176 C                    -0.049518
  ----------------------------------------
  Sum of atomic charges =     0.000000

                    Cartesian Multipole Moments
 -----------------------------------------------------------------
    Charge (ESU x 10^10)
                 0.0000
    Dipole Moment (Debye)
         X      -2.1362      Y      -3.8868      Z      -2.1128
       Tot       4.9127
    Quadrupole Moments (Debye-Ang)
        XX    -774.9940     XY      13.5543     YY    -791.5843
        XZ      -4.5232     YZ      -1.6078     ZZ    -805.6393

 Total job time:  866.03s(wall), 8213.59s(cpu)
        *  Thank you very much for using Q-Chem.  Have a nice day.  *
