 Q-Chem 4.4, Q-Chem, Inc., Pleasanton, CA (2016)
 Q-Chem 4.4.2 for Intel X86 Linux

User input:
--------------------------------------------------------------
$comment
SP
$end

$rem
MEM_STATIC 5000
MEM_TOTAL 20000
JOBTYPE SP
EXCHANGE B3LYP
BASIS 6-31g(d,p)
$end

$molecule
0 1
O          10.486000    -22.818000     11.063000
C           9.895000    -23.879000     10.198000
H          10.607000    -24.593000      9.767000
H           9.286000    -23.394000      9.425000
H           9.265000    -24.495000     10.852000
O          12.065000    -22.316000      9.387000
C          11.517000    -22.039000     10.476000
C          11.791000    -20.798000     11.358000
H          12.622000    -20.224000     10.930000
H          12.287000    -21.164000     12.265000
C          10.492000    -20.156000     11.881000
H           9.647000    -20.466000     11.254000
H          10.135000    -20.334000     12.903000
C          10.530000    -18.607000     11.771000
H           9.691000    -18.216000     12.361000
H          11.458000    -18.217000     12.209000
C          10.420000    -18.108000     10.349000
C           9.192000    -18.592000      9.627000
C           9.370000    -19.620000      8.735000
H          10.392000    -19.969000      8.622000
C           8.319000    -20.019000      7.867000
H           8.463000    -20.728000      7.056000
C           7.088000    -19.416000      8.024000
H           6.249000    -19.737000      7.414000
C           6.906000    -18.292000      8.884000
H           5.889000    -17.911000      8.880000
C           7.939000    -17.956000      9.777000
H           7.723000    -17.230000     10.556000
C          13.285000    -16.957000      5.737000
C          11.426000    -15.375000      5.675000
C          13.934000    -11.702000      6.643000
C          15.770000    -16.688000     10.098000
C          13.118000    -11.626000     10.077000
C          11.966000    -16.650000      6.033000
C          15.628000    -14.065000     11.013000
C          14.400000    -13.528000      5.174000
C          10.225000    -14.436000      9.448000
C          14.858000    -16.298000     11.127000
C          10.832000    -16.717000     10.059000
C          10.952000    -14.350000     10.559000
C          13.450000    -14.574000     11.874000
C          15.159000    -12.752000     10.803000
C          10.464000    -16.059000      7.610000
C          15.095000    -11.626000      8.636000
C          11.736000    -17.803000      9.663000
C          13.163000    -17.815000     10.168000
C          13.713000    -11.257000      8.860000
C          16.842000    -14.962000      7.289000
C          16.039000    -12.910000      6.843000
C          15.614000    -13.755000      5.799000
C          13.640000    -14.697000      4.913000
C          14.057000    -18.153000      9.156000
C          10.207000    -15.804000      8.984000
C          12.270000    -14.372000      5.078000
C          14.789000    -15.017000     11.649000
C          10.510000    -14.969000      6.697000
C          11.730000    -13.211000     10.870000
C          15.961000    -17.070000      7.939000
C          13.480000    -12.469000      5.539000
C          11.353000    -15.654000     10.989000
C          15.422000    -16.195000      5.758000
C          12.936000    -13.318000     11.527000
C          10.299000    -13.351000      8.512000
C          16.663000    -13.371000      9.130000
C          16.513000    -14.416000     10.048000
C          11.043000    -12.187000      8.811000
C          15.331000    -17.547000      9.135000
C          13.578000    -16.767000     11.082000
C          16.808000    -15.975000      8.218000
C          11.994000    -17.915000      8.119000
C          11.271000    -12.628000      6.575000
C          12.694000    -15.761000     11.545000
C          11.811000    -12.109000     10.044000
C          15.354000    -17.238000      6.663000
C          13.043000    -11.335000      7.659000
C          14.118000    -15.967000      5.221000
C          15.197000    -11.882000      7.266000
C          10.465000    -13.619000      7.145000
C          11.668000    -11.765000      7.636000
C          11.330000    -17.041000      7.226000
C          13.371000    -18.123000      7.906000
C          16.717000    -13.666000      7.784000
C          12.168000    -13.027000      5.532000
C          13.831000    -12.378000     11.031000
C          16.650000    -15.735000      9.595000
C          15.773000    -12.385000      9.572000
C          14.017000    -17.709000      6.658000
C          16.163000    -15.028000      6.085000
O           8.848000    -13.846000     -2.390000
C           7.514000    -13.445000     -2.782000
H           7.196000    -12.475000     -2.382000
H           6.855000    -14.276000     -2.500000
H           7.401000    -13.407000     -3.873000
O           8.514000    -13.420000     -0.171000
C           9.209000    -13.825000     -1.062000
C          10.646000    -14.328000     -0.932000
H          10.774000    -15.145000     -1.653000
H          10.794000    -14.811000      0.042000
C          11.855000    -13.304000     -1.168000
H          11.609000    -12.476000     -1.843000
H          12.178000    -12.778000     -0.261000
C          13.132000    -14.080000     -1.572000
H          13.256000    -14.856000     -0.807000
H          12.937000    -14.694000     -2.460000
C          14.357000    -13.176000     -1.874000
C          14.110000    -12.162000     -2.925000
C          13.997000    -10.761000     -2.673000
H          14.128000    -10.390000     -1.661000
C          13.723000     -9.957000     -3.711000
H          13.693000     -8.872000     -3.661000
C          13.535000    -10.473000     -5.000000
H          13.470000     -9.773000     -5.828000
C          13.528000    -11.885000     -5.263000
H          13.452000    -12.334000     -6.249000
C          13.935000    -12.735000     -4.221000
H          14.073000    -13.810000     -4.288000
C          19.711000    -13.401000     -3.307000
C          19.453000    -11.351000     -2.082000
C          21.726000    -12.626000      1.608000
C          17.754000    -17.185000     -0.473000
C          18.778000    -13.222000      3.395000
C          18.945000    -12.238000     -2.997000
C          18.191000    -16.549000      2.254000
C          22.141000    -13.106000     -0.666000
C          16.527000    -11.489000      0.605000
C          16.725000    -16.666000      0.318000
C          15.405000    -12.900000     -0.892000
C          15.958000    -12.450000      1.357000
C          16.209000    -15.157000      1.970000
C          18.837000    -15.625000      3.160000
C          17.232000    -11.406000     -1.736000
C          20.849000    -14.344000      2.959000
C          15.720000    -13.873000     -2.013000
C          16.005000    -15.304000     -1.617000
C          20.126000    -13.172000      3.157000
C          21.273000    -16.433000     -0.472000
C          22.106000    -14.903000      0.906000
C          22.348000    -14.477000     -0.441000
C          21.455000    -12.654000     -1.838000
C          17.077000    -15.795000     -2.328000
C          16.286000    -11.670000     -0.742000
C          20.738000    -11.526000     -1.544000
C          16.929000    -16.369000      1.686000
C          18.449000    -10.827000     -1.364000
C          16.701000    -12.859000      2.535000
C          19.345000    -16.667000     -1.991000
C          21.952000    -12.167000      0.321000
C          15.306000    -13.400000      0.529000
C          21.042000    -14.987000     -2.394000
C          16.805000    -14.227000      2.830000
C          17.766000    -10.822000      0.989000
C          20.461000    -16.530000      1.884000
C          19.200000    -17.115000      1.453000
C          18.383000    -11.157000      2.133000
C          17.935000    -16.706000     -1.778000
C          15.825000    -15.727000     -0.232000
C          20.040000    -17.075000     -0.825000
C          16.867000    -13.540000     -2.910000
C          19.965000    -10.707000      0.566000
C          15.583000    -14.808000      0.782000
C          17.923000    -12.202000      2.889000
C          19.874000    -15.600000     -2.778000
C          20.628000    -12.148000      2.376000
C          20.946000    -13.628000     -2.722000
C          21.827000    -13.975000      1.979000
C          18.688000    -10.504000     -0.022000
C          19.770000    -11.120000      1.880000
C          17.559000    -12.346000     -2.770000
C          17.607000    -14.695000     -3.034000
C          21.477000    -16.128000      0.863000
C          21.030000    -11.269000     -0.218000
C          18.084000    -14.436000      3.393000
C          19.040000    -17.416000      0.108000
C          20.182000    -15.589000      2.848000
C          19.010000    -14.620000     -3.334000
C          21.803000    -15.420000     -1.309000
$end

--------------------------------------------------------------

             Standard Nuclear Orientation (Angstroms)
    I     Atom           X                Y                Z
 ----------------------------------------------------------------
    1      O     -10.1898002510     0.2759125318    -5.3816884195
    2      C     -10.0555163876     1.1980269195    -6.5456900948
    3      H      -9.5535970461     0.7816142767    -7.4272673663
    4      H      -9.5733670314     2.1210423592    -6.2004228123
    5      H     -11.0750608712     1.4053377073    -6.8944353935
    6      O      -7.8956331817    -0.2463217994    -5.5169280646
    7      C      -8.9861823426    -0.3090001542    -4.9088754752
    8      C      -9.2375202244    -0.9612747029    -3.5288580179
    9      H      -8.3198966163    -1.4563170576    -3.1880927305
   10      H      -9.8521300657    -1.8508028643    -3.7122030288
   11      C     -10.1198583703    -0.0835499927    -2.6210184235
   12      H     -10.0955317404     0.9551121410    -2.9729320311
   13      H     -11.1898449852    -0.2874974008    -2.4900562200
   14      C      -9.5765632759    -0.0303696234    -1.1667325890
   15      H     -10.3622001273     0.4102769239    -0.5394309406
   16      H      -9.3816191116    -1.0450787324    -0.7959358830
   17      C      -8.3109415142     0.7842116388    -1.0331514397
   18      C      -8.4418426832     2.1986209025    -1.5289692678
   19      C      -7.9039112979     2.4685120219    -2.7626307321
   20      H      -7.4135136018     1.6322439200    -3.2517317047
   21      C      -7.8043229271     3.8040766867    -3.2354681062
   22      H      -7.2606891436     4.0694672919    -4.1383347277
   23      C      -8.3611968027     4.8046273492    -2.4657870954
   24      H      -8.3511438135     5.8293900019    -2.8247055305
   25      C      -8.8476501099     4.5560983410    -1.1475699236
   26      H      -9.2296529187     5.4470310777    -0.6578978775
   27      C      -8.9943155386     3.2223918587    -0.7266776914
   28      H      -9.5414866082     3.0356931543     0.1932790545
   29      C      -2.7784014962     0.6250021192    -1.4445190102
   30      C      -3.1833811581     2.2986996084     0.2867167300
   31      C      -1.7443586751    -0.2832140219     3.7480680989
   32      C      -5.1170583925    -3.6978492239    -0.3911685522
   33      C      -4.9653107675    -1.2872473491     4.7879588125
   34      C      -3.5759821746     1.6265116781    -0.9130402572
   35      C      -5.2100664851    -3.9782304191     2.3747406799
   36      C      -0.8120822919     0.0087898603     1.5674747213
   37      C      -6.6300551324     1.4766156519     2.2877833164
   38      C      -6.3023094771    -3.4129104118     0.3549378341
   39      C      -7.4816980949     0.5998976765     0.1780911929
   40      C      -7.1755167768     0.2942977445     2.5613559037
   41      C      -7.1201736467    -2.5306240833     2.3712012184
   42      C      -4.8951999236    -3.4406113472     3.6395943402
   43      C      -5.4447823466     2.1534472225     0.2368027100
   44      C      -2.8140185733    -2.2816859674     4.1812927349
   45      C      -7.0200719669    -0.0078469262    -1.0752945482
   46      C      -6.7518374846    -1.4964746071    -1.1347578989
   47      C      -3.5650151729    -1.1884261207     4.7618510998
   48      C      -1.7859748645    -3.1910018785     0.4247538084
   49      C      -1.2300860094    -2.2313561978     2.3803858668
   50      C      -0.8065921786    -1.3594538712     1.3581210733
   51      C      -1.2906313095     0.7739331805     0.4730211877
   52      C      -5.5748313565    -1.7732455099    -1.8244523544
   53      C      -6.6370361227     1.6960286316     0.8598991439
   54      C      -1.9992192614     1.8853323952     0.9949837343
   55      C      -6.4098690129    -3.5876175722     1.7246510721
   56      C      -4.3602831308     2.5909183971     1.0469048161
   57      C      -6.7381195201    -0.5119847678     3.6374219566
   58      C      -3.3413694597    -2.7942970979    -1.3261596590
   59      C      -1.2633031818     0.6453148470     2.7890890835
   60      C      -7.7031839510    -0.2939375046     1.3690205294
   61      C      -1.5486470280    -1.2218552851    -0.9705193519
   62      C      -6.7294355531    -1.8868350431     3.5523025747
   63      C      -5.5143386660     1.9011942205     3.0838403531
   64      C      -2.9536686016    -3.9219664427     2.4384035153
   65      C      -4.0800265431    -4.2709053090     1.6855366909
   66      C      -5.0764395287     1.1308625364     4.1850517052
   67      C      -4.7714224027    -2.8544953593    -1.4047074127
   68      C      -7.0155356141    -2.2907814183     0.0507651865
   69      C      -2.8563770470    -3.6452977264    -0.3088812852
   70      C      -5.6463322120     0.5363743862    -1.6041671686
   71      C      -3.2355218808     2.0395655975     3.1694523941
   72      C      -7.5454417165    -1.7353961413     1.2418183829
   73      C      -5.7054689314    -0.1479894947     4.4766961687
   74      C      -2.6239962059    -1.6353250150    -1.7348261803
   75      C      -2.9151106722    -0.0104526031     4.4662372779
   76      C      -1.6703661419     0.1805070533    -0.7269350151
   77      C      -1.7003460187    -1.6919717044     3.5772972637
   78      C      -4.3755522419     2.4337128605     2.4612181737
   79      C      -3.6816179293     1.1838105180     4.2167253096
   80      C      -4.9823712629     1.5747435976    -0.9090655653
   81      C      -4.8617977732    -0.5547911006    -2.0268083812
   82      C      -1.8940373341    -3.3034154847     1.8089328733
   83      C      -2.0484384304     1.7744253037     2.4130183215
   84      C      -5.6219897815    -2.3960377082     4.2193239453
   85      C      -4.0074249456    -4.1903006982     0.2884071676
   86      C      -3.4746638565    -3.3513121096     3.6056984980
   87      C      -3.3985252553    -0.4837939661    -2.0238175212
   88      C      -1.1345768540    -2.0034914000     0.1410065700
   89      O       2.6850600552     8.5857135149     0.0357110229
   90      C       2.4770315001     9.9452451478     0.4856208575
   91      H       2.2630996188    10.0408733992     1.5566541845
   92      H       1.6917230469    10.3588764291    -0.1597982285
   93      H       3.3376626237    10.5880458506     0.2606423570
   94      O       0.8027593343     7.7770375563     1.0456517093
   95      C       1.7644027469     7.6110061414     0.3466477635
   96      C       2.2109515173     6.2908331490    -0.2799425859
   97      H       2.6419783426     6.5230235027    -1.2617865224
   98      H       1.3396746282     5.6670790460    -0.5159010603
   99      C       3.2782280225     5.3815668879     0.4947242636
  100      H       3.9507599579     5.9480786169     1.1493159354
  101      H       2.8296742260     4.6599409738     1.1887772385
  102      C       4.0137301137     4.4608533165    -0.5089909317
  103      H       3.2221094534     3.9562202156    -1.0759646203
  104      H       4.4838128796     5.0603134049    -1.2984431440
  105      C       5.1098757447     3.5682183380     0.1318776593
  106      C       6.1457808488     4.3268721715     0.8702210592
  107      C       6.2744179632     4.3273704686     2.2923765516
  108      H       5.6025162018     3.7166229140     2.8877599974
  109      C       7.2276844004     5.0987005718     2.8357631284
  110      H       7.4754970880     5.1216470088     3.8934432941
  111      C       8.0611016600     5.8940637084     2.0383083320
  112      H       8.9122254030     6.3774590866     2.5091865354
  113      C       7.8804534301     6.0028121050     0.6175683828
  114      H       8.5355643782     6.5513604759    -0.0528772381
  115      C       6.9753322732     5.1133118148     0.0146936653
  116      H       6.7966630803     5.0054612772    -1.0509533593
  117      C       8.8252303693    -0.3609908650    -1.1037942442
  118      C       8.2586202407    -0.7070216956     1.2046477902
  119      C       5.9414976627    -4.5426677184     0.6327941844
  120      C       4.4690667918    -0.1549508419    -3.7798823211
  121      C       2.8666887099    -2.8914215158     0.8740925106
  122      C       8.5232348078     0.1716181258     0.1848295735
  123      C       2.5973165812    -1.8808344677    -2.5349442265
  124      C       7.8934705271    -3.7778390076    -0.4528116280
  125      C       4.5764078521     0.4855408342     2.1099629494
  126      C       3.4606825764     0.3526715823    -2.9556470703
  127      C       4.8798688179     2.1759164737     0.5157999591
  128      C       3.4085162340     0.5841584414     1.4473244839
  129      C       2.2637181254     0.0063309322    -1.0269777733
  130      C       2.4172846686    -2.8738192201    -1.4988468411
  131      C       6.8818632468     1.0438507581     1.5121666196
  132      C       3.9159635398    -4.4911731927    -0.5673782327
  133      C       5.6893629508     2.4424134615    -0.7397053592
  134      C       5.0982128689     1.9690896322    -2.0482572815
  135      C       3.7301604441    -3.9397850061     0.6963326825
  136      C       6.3811762781    -3.1895675235    -3.4903915472
  137      C       6.0698989268    -4.5677688217    -1.7765244018
  138      C       7.4231788365    -4.0970805517    -1.7373448360
  139      C       8.6599809626    -2.5897728401    -0.2304503594
  140      C       6.0689028156     1.3848730296    -2.8307136628
  141      C       5.5260745232     1.3625139514     1.6259150537
  142      C       8.3851578217    -2.0923497095     1.0145201103
  143      C       2.5081816707    -0.5003735986    -2.3504157558
  144      C       7.3242618562    -0.1845539572     2.0121859451
  145      C       2.6766449545    -0.6554243979     1.2607425586
  146      C       6.6425052274    -0.7660604111    -3.8613652076
  147      C       7.2465247858    -4.0873733648     0.7207558773
  148      C       3.5136882280     1.5429166874     0.4066951179
  149      C       8.2680096588    -2.0016673188    -2.5592020407
  150      C       2.0993208283    -0.9202650283     0.0094147463
  151      C       5.0441378582    -0.7661369351     2.6947683898
  152      C       4.0075996124    -3.6629230937    -2.8890951844
  153      C       3.5911580044    -2.3670872627    -3.4043552024
  154      C       4.3002233400    -1.8780884207     2.5861171899
  155      C       5.7728495877     0.3487176041    -3.6717365047
  156      C       3.7442570761     1.4257857322    -2.0825877799
  157      C       5.8976433546    -1.9580452724    -4.0441160789
  158      C       7.0812762068     1.9025943799    -0.7874531018
  159      C       6.4908995512    -2.4583331500     2.4281083551
  160      C       3.0436833457     1.1483077602    -0.9148877229
  161      C       3.1582270057    -1.8776110579     1.8304683663
  162      C       7.8497466552    -0.8104232213    -3.1009054281
  163      C       4.9073254264    -3.9646115695     1.4203542610
  164      C       8.8740476817    -1.7274822368    -1.3258239739
  165      C       5.3050227425    -4.8424291797    -0.5807484569
  166      C       6.4175317912    -1.0544358389     2.6315082369
  167      C       5.1913603016    -2.9530274920     2.3873009214
  168      C       7.6342617559     1.2572254581     0.3088159971
  169      C       7.2187023463     1.2999120596    -2.0182614041
  170      C       5.4582788827    -4.0259931470    -2.8858102262
  171      C       7.4988556644    -3.0015088912     1.5599438615
  172      C       2.1927062190    -2.3135481035    -0.2062990486
  173      C       4.5447532555    -1.5637205520    -4.0130291915
  174      C       3.3367461073    -3.8829593542    -1.7083506656
  175      C       8.1671915612     0.2353156462    -2.1944337226
  176      C       7.6152422043    -3.2109495539    -2.7945021173
 ----------------------------------------------------------------

    9   -5804.2463267193      9.55E-06 Convergence criterion met
 Total energy in the final basis set = -5804.2463267193

                    Orbital Energies (a.u.)
 --------------------------------------------------------------

 Alpha MOs
 -- Occupied --
-19.191 -19.188 -19.143 -19.137 -10.325 -10.317 -10.246 -10.244
-10.240 -10.236 -10.234 -10.234 -10.232 -10.232 -10.231 -10.230
-10.230 -10.229 -10.225 -10.224 -10.224 -10.223 -10.223 -10.222
-10.221 -10.221 -10.220 -10.220 -10.220 -10.219 -10.219 -10.219
-10.219 -10.219 -10.218 -10.218 -10.218 -10.218 -10.218 -10.217
-10.217 -10.217 -10.217 -10.217 -10.217 -10.217 -10.217 -10.216
-10.216 -10.216 -10.216 -10.216 -10.216 -10.216 -10.216 -10.215
-10.215 -10.215 -10.215 -10.215 -10.215 -10.215 -10.215 -10.215
-10.214 -10.214 -10.214 -10.214 -10.214 -10.214 -10.214 -10.214
-10.214 -10.214 -10.214 -10.214 -10.214 -10.213 -10.213 -10.213
-10.213 -10.213 -10.213 -10.213 -10.213 -10.213 -10.213 -10.212
-10.212 -10.212 -10.212 -10.212 -10.211 -10.211 -10.211 -10.211
-10.211 -10.211 -10.211 -10.211 -10.211 -10.211 -10.210 -10.210
-10.210 -10.210 -10.210 -10.210 -10.210 -10.210 -10.210 -10.209
-10.209 -10.209 -10.209 -10.209 -10.209 -10.209 -10.208 -10.208
-10.208 -10.208 -10.208 -10.207 -10.207 -10.207 -10.207 -10.207
-10.207 -10.206 -10.205 -10.205 -10.205 -10.205 -10.204 -10.204
-10.203 -10.202 -10.201 -10.201 -10.200 -10.199 -10.198 -10.198
-10.197 -10.196 -10.194 -10.194  -1.090  -1.066  -1.014  -0.994
 -0.981  -0.981  -0.963  -0.963  -0.961  -0.960  -0.960  -0.957
 -0.934  -0.932  -0.925  -0.924  -0.924  -0.922  -0.922  -0.920
 -0.920  -0.916  -0.896  -0.895  -0.889  -0.887  -0.886  -0.882
 -0.877  -0.874  -0.855  -0.852  -0.842  -0.837  -0.837  -0.835
 -0.834  -0.833  -0.821  -0.817  -0.806  -0.799  -0.798  -0.795
 -0.795  -0.791  -0.791  -0.790  -0.789  -0.787  -0.781  -0.780
 -0.769  -0.767  -0.766  -0.766  -0.765  -0.764  -0.761  -0.761
 -0.754  -0.750  -0.740  -0.740  -0.730  -0.729  -0.716  -0.713
 -0.713  -0.710  -0.710  -0.709  -0.709  -0.707  -0.706  -0.706
 -0.705  -0.704  -0.703  -0.703  -0.699  -0.698  -0.672  -0.672
 -0.658  -0.656  -0.654  -0.652  -0.646  -0.645  -0.631  -0.631
 -0.628  -0.625  -0.623  -0.622  -0.621  -0.619  -0.619  -0.617
 -0.614  -0.613  -0.610  -0.610  -0.610  -0.609  -0.606  -0.605
 -0.605  -0.604  -0.601  -0.598  -0.565  -0.562  -0.561  -0.560
 -0.560  -0.559  -0.557  -0.557  -0.555  -0.554  -0.553  -0.548
 -0.537  -0.535  -0.530  -0.529  -0.527  -0.525  -0.525  -0.523
 -0.521  -0.521  -0.519  -0.517  -0.514  -0.513  -0.512  -0.512
 -0.506  -0.503  -0.496  -0.494  -0.488  -0.487  -0.484  -0.484
 -0.482  -0.481  -0.478  -0.477  -0.476  -0.475  -0.475  -0.474
 -0.472  -0.470  -0.468  -0.468  -0.466  -0.466  -0.465  -0.464
 -0.464  -0.462  -0.462  -0.460  -0.460  -0.460  -0.458  -0.458
 -0.451  -0.451  -0.450  -0.448  -0.447  -0.445  -0.442  -0.442
 -0.441  -0.440  -0.438  -0.437  -0.436  -0.435  -0.434  -0.431
 -0.431  -0.429  -0.428  -0.428  -0.426  -0.423  -0.423  -0.423
 -0.422  -0.421  -0.419  -0.419  -0.418  -0.418  -0.417  -0.416
 -0.416  -0.415  -0.415  -0.414  -0.413  -0.412  -0.412  -0.411
 -0.410  -0.408  -0.408  -0.405  -0.400  -0.400  -0.394  -0.392
 -0.391  -0.390  -0.390  -0.389  -0.388  -0.386  -0.384  -0.383
 -0.377  -0.376  -0.373  -0.372  -0.371  -0.367  -0.365  -0.364
 -0.362  -0.362  -0.361  -0.361  -0.359  -0.358  -0.358  -0.357
 -0.355  -0.354  -0.353  -0.353  -0.352  -0.352  -0.351  -0.350
 -0.349  -0.349  -0.347  -0.346  -0.345  -0.345  -0.344  -0.343
 -0.342  -0.341  -0.339  -0.338  -0.337  -0.337  -0.333  -0.331
 -0.331  -0.329  -0.328  -0.327  -0.325  -0.324  -0.324  -0.321
 -0.307  -0.305  -0.298  -0.297  -0.289  -0.283  -0.272  -0.270
 -0.269  -0.269  -0.268  -0.267  -0.266  -0.263  -0.263  -0.262
 -0.261  -0.260  -0.259  -0.259  -0.257  -0.256  -0.255  -0.253
 -0.248  -0.245  -0.244  -0.238  -0.222  -0.220  -0.211  -0.210
 -0.206  -0.206  -0.204  -0.203  -0.197  -0.197

          Ground-State Mulliken Net Atomic Charges

     Atom                 Charge (a.u.)
  ----------------------------------------
      1 O                    -0.481813
      2 C                    -0.086602
      3 H                     0.137490
      4 H                     0.130665
      5 H                     0.122761
      6 O                    -0.483440
      7 C                     0.597890
      8 C                    -0.253331
      9 H                     0.140424
     10 H                     0.141142
     11 C                    -0.192796
     12 H                     0.128685
     13 H                     0.109654
     14 C                    -0.185601
     15 H                     0.098757
     16 H                     0.100903
     17 C                     0.021638
     18 C                     0.087163
     19 C                    -0.123115
     20 H                     0.114521
     21 C                    -0.091960
     22 H                     0.098010
     23 C                    -0.086306
     24 H                     0.086360
     25 C                    -0.084965
     26 H                     0.094189
     27 C                    -0.114625
     28 H                     0.094631
     29 C                    -0.007887
     30 C                    -0.031807
     31 C                     0.021729
     32 C                    -0.001669
     33 C                     0.004276
     34 C                     0.001945
     35 C                     0.013768
     36 C                    -0.006769
     37 C                    -0.012350
     38 C                     0.006248
     39 C                    -0.071909
     40 C                     0.048534
     41 C                    -0.010126
     42 C                     0.001897
     43 C                     0.010970
     44 C                    -0.003394
     45 C                    -0.070558
     46 C                     0.004829
     47 C                    -0.015294
     48 C                     0.012714
     49 C                    -0.026480
     50 C                     0.020420
     51 C                     0.009014
     52 C                    -0.010572
     53 C                     0.006325
     54 C                    -0.010068
     55 C                    -0.035002
     56 C                    -0.006126
     57 C                     0.033927
     58 C                     0.006008
     59 C                    -0.036399
     60 C                     0.008408
     61 C                    -0.027130
     62 C                     0.003678
     63 C                    -0.006273
     64 C                    -0.013490
     65 C                     0.024899
     66 C                    -0.014771
     67 C                     0.021617
     68 C                     0.023452
     69 C                    -0.015613
     70 C                     0.004559
     71 C                    -0.006540
     72 C                    -0.036972
     73 C                    -0.024064
     74 C                    -0.019337
     75 C                     0.017600
     76 C                     0.030636
     77 C                    -0.006304
     78 C                     0.015010
     79 C                    -0.009039
     80 C                     0.038122
     81 C                     0.017295
     82 C                     0.023477
     83 C                     0.013372
     84 C                    -0.008162
     85 C                    -0.017874
     86 C                    -0.001776
     87 C                    -0.003332
     88 C                     0.005869
     89 O                    -0.468948
     90 C                    -0.084422
     91 H                     0.133797
     92 H                     0.123145
     93 H                     0.122017
     94 O                    -0.449832
     95 C                     0.577593
     96 C                    -0.250258
     97 H                     0.123303
     98 H                     0.130513
     99 C                    -0.184551
    100 H                     0.124270
    101 H                     0.114049
    102 C                    -0.178520
    103 H                     0.112849
    104 H                     0.104814
    105 C                    -0.000901
    106 C                     0.075609
    107 C                    -0.089949
    108 H                     0.095822
    109 C                    -0.084100
    110 H                     0.091437
    111 C                    -0.090955
    112 H                     0.089533
    113 C                    -0.101510
    114 H                     0.093188
    115 C                    -0.090025
    116 H                     0.096763
    117 C                    -0.024685
    118 C                     0.037274
    119 C                     0.007923
    120 C                    -0.007929
    121 C                    -0.000055
    122 C                    -0.014797
    123 C                     0.014718
    124 C                     0.019703
    125 C                     0.034806
    126 C                    -0.006094
    127 C                    -0.104698
    128 C                    -0.009508
    129 C                    -0.011665
    130 C                    -0.028063
    131 C                    -0.000858
    132 C                    -0.014308
    133 C                    -0.092417
    134 C                     0.025412
    135 C                     0.021139
    136 C                    -0.008068
    137 C                     0.000355
    138 C                    -0.011661
    139 C                    -0.020040
    140 C                     0.024388
    141 C                     0.016116
    142 C                     0.022250
    143 C                    -0.016498
    144 C                    -0.011796
    145 C                    -0.025328
    146 C                    -0.017577
    147 C                    -0.009458
    148 C                     0.002451
    149 C                     0.039737
    150 C                     0.023413
    151 C                     0.012321
    152 C                    -0.029752
    153 C                    -0.004048
    154 C                    -0.004026
    155 C                     0.006295
    156 C                    -0.013529
    157 C                     0.011144
    158 C                     0.043559
    159 C                    -0.012675
    160 C                     0.023277
    161 C                     0.004310
    162 C                    -0.016620
    163 C                     0.014987
    164 C                    -0.002294
    165 C                    -0.025789
    166 C                    -0.009060
    167 C                    -0.024389
    168 C                     0.010431
    169 C                    -0.000417
    170 C                     0.005911
    171 C                    -0.003898
    172 C                     0.000201
    173 C                    -0.007901
    174 C                     0.049624
    175 C                    -0.009123
    176 C                    -0.011291
  ----------------------------------------
  Sum of atomic charges =     0.000000

                    Cartesian Multipole Moments
 -----------------------------------------------------------------
    Charge (ESU x 10^10)
                 0.0000
    Dipole Moment (Debye)
         X      -2.0279      Y       4.4043      Z      -0.7131
       Tot       4.9009
    Quadrupole Moments (Debye-Ang)
        XX    -753.5146     XY      13.7885     YY    -777.0287
        XZ      18.1846     YZ     -14.3687     ZZ    -807.6384

 Total job time:  851.78s(wall), 8142.80s(cpu)
        *  Thank you very much for using Q-Chem.  Have a nice day.  *
