 Q-Chem 4.4, Q-Chem, Inc., Pleasanton, CA (2016)
 Q-Chem 4.4.2 for Intel X86 Linux

User input:
--------------------------------------------------------------
$comment
SP
$end

$rem
MEM_STATIC 5000
MEM_TOTAL 20000
JOBTYPE SP
EXCHANGE B3LYP
BASIS 6-31g(d,p)
$end

$molecule
0 1
O          21.234000      3.676000     -0.627000
C          20.139000      4.629000     -0.860000
H          19.172000      4.111000     -0.871000
H          20.405000      5.149000     -1.789000
H          20.085000      5.317000     -0.007000
O          22.759000      5.387000     -0.611000
C          22.518000      4.190000     -0.544000
C          23.609000      3.050000     -0.449000
H          23.609000      2.704000      0.592000
H          24.520000      3.638000     -0.614000
C          23.269000      1.780000     -1.269000
H          22.421000      1.993000     -1.931000
H          24.072000      1.608000     -1.996000
C          23.006000      0.521000     -0.397000
H          23.180000     -0.356000     -1.031000
H          23.846000      0.377000      0.294000
C          21.706000      0.487000      0.398000
C          21.834000      0.914000      1.828000
C          22.570000      0.111000      2.666000
H          22.946000     -0.805000      2.220000
C          22.995000      0.647000      3.874000
H          23.622000      0.093000      4.567000
C          22.425000      1.859000      4.337000
H          22.726000      2.159000      5.337000
C          21.607000      2.659000      3.561000
H          21.255000      3.627000      3.904000
C          21.328000      2.159000      2.297000
H          20.846000      2.867000      1.629000
C          17.519000     -2.690000      2.072000
C          16.473000     -0.501000      1.913000
C          14.083000     -1.382000     -1.888000
C          19.866000     -3.938000     -2.329000
C          16.371000      0.242000     -4.049000
C          17.608000     -1.285000      2.257000
C          18.510000     -2.715000     -4.398000
C          14.439000     -2.749000      0.072000
C          18.349000      1.746000     -0.911000
C          20.371000     -2.755000     -2.841000
C          20.392000      0.604000     -0.331000
C          19.064000      1.423000     -2.098000
C          19.775000     -0.716000     -3.709000
C          17.397000     -1.916000     -4.736000
C          18.360000      0.591000      1.250000
C          15.153000     -1.896000     -3.829000
C          20.750000     -0.710000      0.249000
C          20.959000     -1.879000     -0.647000
C          15.213000     -0.488000     -3.674000
C          16.607000     -4.932000     -1.649000
C          14.806000     -3.678000     -2.177000
C          14.846000     -3.772000     -0.780000
C          15.183000     -2.450000      1.250000
C          20.313000     -2.948000     -0.099000
C          19.091000      1.176000      0.156000
C          15.288000     -1.078000      1.444000
C          19.698000     -2.120000     -3.918000
C          16.951000      0.672000      1.310000
C          18.297000      1.171000     -3.281000
C          18.739000     -4.775000     -0.496000
C          14.093000     -1.519000     -0.497000
C          20.213000      0.674000     -1.719000
C          16.678000     -4.322000      0.748000
C          18.616000      0.014000     -4.048000
C          16.938000      1.798000     -0.904000
C          16.619000     -3.779000     -3.786000
C          18.058000     -3.957000     -3.842000
C          16.234000      1.515000     -2.049000
C          19.871000     -3.984000     -0.926000
C          20.867000     -1.718000     -2.051000
C          17.997000     -5.071000     -1.677000
C          19.843000     -1.299000      1.312000
C          15.089000      0.704000     -0.270000
C          20.522000     -0.468000     -2.537000
C          16.903000      1.239000     -3.256000
C          18.058000     -4.436000      0.709000
C          14.586000     -0.190000     -2.446000
C          16.317000     -3.199000      1.537000
C          14.425000     -2.468000     -2.754000
C          16.213000      1.282000      0.218000
C          15.086000      0.838000     -1.635000
C          18.770000     -0.609000      1.823000
C          19.736000     -2.653000      1.110000
C          15.914000     -4.364000     -2.741000
C          14.620000     -0.508000      0.361000
C          17.477000     -0.530000     -4.563000
C          18.710000     -4.593000     -2.789000
C          16.226000     -2.609000     -4.393000
C          18.564000     -3.334000      1.463000
C          15.932000     -4.604000     -0.426000
O           1.305000     -0.276000      0.477000
C           0.558000      0.740000      1.163000
H           0.629000      1.636000      0.534000
H           0.984000      0.966000      2.148000
H          -0.467000      0.429000      1.400000
O          -0.385000     -0.922000     -0.827000
C           0.712000     -1.156000     -0.378000
C           1.536000     -2.369000     -0.656000
H           1.136000     -2.881000     -1.539000
H           1.350000     -2.993000      0.227000
C           3.079000     -2.029000     -0.924000
H           3.035000     -1.230000     -1.675000
H           3.623000     -1.624000     -0.062000
C           3.869000     -3.205000     -1.587000
H           3.644000     -4.113000     -1.015000
H           3.506000     -3.450000     -2.592000
C           5.417000     -2.921000     -1.745000
C           5.756000     -1.499000     -2.097000
C           6.092000     -0.544000     -1.096000
H           6.188000     -0.799000     -0.045000
C           6.294000      0.807000     -1.565000
H           6.665000      1.543000     -0.857000
C           6.284000      1.101000     -2.937000
H           6.537000      2.128000     -3.183000
C           5.922000      0.140000     -3.866000
H           5.842000      0.404000     -4.916000
C           5.589000     -1.112000     -3.406000
H           5.296000     -1.880000     -4.116000
C           9.976000     -5.159000     -3.923000
C          10.819000     -3.774000     -2.087000
C          11.901000     -7.353000      0.505000
C           6.332000     -8.401000     -2.455000
C           9.011000     -7.231000      2.446000
C           9.931000     -3.968000     -3.152000
C           6.955000     -9.245000      0.146000
C          12.182000     -6.992000     -1.846000
C           7.935000     -3.648000      0.858000
C           5.681000     -7.826000     -1.328000
C           6.400000     -3.778000     -0.907000
C           6.953000     -4.525000      1.276000
C           5.840000     -7.145000      0.839000
C           7.878000     -9.052000      1.221000
C           8.738000     -3.091000     -1.377000
C          10.321000     -8.794000      1.157000
C           6.173000     -4.125000     -2.304000
C           5.752000     -5.638000     -2.424000
C          10.243000     -7.676000      2.008000
C           9.746000     -9.354000     -2.748000
C          11.255000     -9.079000     -1.039000
C          11.663000     -8.266000     -2.116000
C          11.855000     -5.907000     -2.613000
C           6.569000     -6.230000     -3.399000
C           7.694000     -3.188000     -0.430000
C          11.797000     -4.776000     -1.796000
C           5.938000     -8.266000     -0.043000
C          10.096000     -3.212000     -0.997000
C           7.368000     -5.677000      2.104000
C           8.023000     -8.115000     -3.979000
C          12.318000     -6.521000     -0.512000
C           6.048000     -4.748000      0.176000
C          10.412000     -7.368000     -3.973000
C           6.826000     -6.904000      1.858000
C           9.281000     -3.879000      1.191000
C           9.001000     -9.957000     -0.517000
C           7.666000     -9.767000     -0.925000
C           9.670000     -4.954000      2.008000
C           6.774000     -7.658000     -3.509000
C           5.391000     -6.499000     -1.331000
C           8.405000     -9.183000     -3.157000
C           7.426000     -4.104000     -3.192000
C          11.350000     -4.569000      0.609000
C           5.474000     -6.079000     -0.019000
C           8.694000     -5.856000      2.424000
C           9.053000     -7.194000     -4.305000
C          11.203000     -6.731000      1.631000
C          10.947000     -6.110000     -3.632000
C          11.390000     -8.621000      0.259000
C          10.375000     -3.632000      0.314000
C          10.949000     -5.369000      1.666000
C           8.636000     -3.458000     -2.785000
C           7.579000     -5.310000     -3.859000
C          10.098000     -9.773000     -1.408000
C          11.989000     -5.193000     -0.454000
C           7.812000     -7.936000      2.097000
C           7.354000     -9.332000     -2.246000
C           9.122000     -9.446000      0.776000
C           8.820000     -5.805000     -4.297000
C          10.760000     -8.436000     -3.139000
$end

--------------------------------------------------------------

             Standard Nuclear Orientation (Angstroms)
    I     Atom           X                Y                Z
 ----------------------------------------------------------------
    1      O       9.9890812989     3.2621051756    -0.2377896438
    2      C       9.3054833288     4.5404327364    -0.4829334028
    3      H       8.2169023183     4.4097592010    -0.4448570214
    4      H       9.7033251024     4.8986206559    -1.4408584194
    5      H       9.5398547386     5.2272639078     0.3399894273
    6      O      12.0299229275     4.3004636660    -0.3386811308
    7      C      11.3743260026     3.2759556893    -0.2123677202
    8      C      11.9807055261     1.8206812279    -0.0966693392
    9      H      11.8982301559     1.5311841700     0.9582175110
   10      H      13.0352621214     2.0313852657    -0.3120856706
   11      C      11.1698557652     0.7364652197    -0.8502596210
   12      H      10.4302269441     1.2226004287    -1.4978233365
   13      H      11.8251187790     0.2613756837    -1.5904233296
   14      C      10.5045251349    -0.3125449523     0.0833070939
   15      H      10.3223958511    -1.2121280072    -0.5158091314
   16      H      11.2629190007    -0.7306277926     0.7570002606
   17      C       9.3146518155     0.1537605008     0.9139343920
   18      C       9.6476633175     0.5494634901     2.3196852531
   19      C      10.0763712539    -0.4396435920     3.1721086722
   20      H      10.0759338603    -1.4431513971     2.7569943580
   21      C      10.7162589996    -0.0574991665     4.3433022134
   22      H      11.1277742015    -0.7796850009     5.0428712659
   23      C      10.6440916369     1.2926868392     4.7675693717
   24      H      11.0743806190     1.4937446501     5.7448247879
   25      C      10.1405093165     2.3107819520     3.9794150797
   26      H      10.1778932686     3.3507383859     4.2887208438
   27      C       9.6472950047     1.9072684072     2.7467539495
   28      H       9.4276472732     2.7208334336     2.0614227727
   29      C       4.3336123740    -1.2277122501     2.8393832023
   30      C       4.1468099832     1.1857118515     2.6122115208
   31      C       1.4453015730     1.1162510424    -1.0800627790
   32      C       5.8846506323    -3.3813687269    -1.5641106493
   33      C       4.0751302429     1.7277961948    -3.3718425882
   34      C       4.9335036118     0.0536290750     2.9596575196
   35      C       4.9801553343    -1.8142132124    -3.6476503896
   36      C       1.3620422866    -0.2244765283     0.9280563590
   37      C       6.5915533167     2.5063783920    -0.3580461990
   38      C       6.7626000673    -2.4798966125    -2.1413548061
   39      C       8.1035839947     0.7180039384     0.2163169634
   40      C       7.0911508106     1.9083383394    -1.5485391387
   41      C       6.9111202243    -0.3920640433    -3.0821299790
   42      C       4.2196307537    -0.6759844759    -3.9903626681
   43      C       6.2722413259     1.4948420863     1.8507772785
   44      C       2.1750498516     0.1876126163    -3.0247157361
   45      C       7.9844402920    -0.6173281201     0.8438941075
   46      C       7.7182166531    -1.8096789938    -0.0049182205
   47      C       2.7477900832     1.4813601200    -2.9337485783
   48      C       2.5180546568    -3.0994758664    -0.7528862949
   49      C       1.2740901384    -1.2932727208    -1.2868183820
   50      C       1.3349154317    -1.3515868593     0.1113750041
   51      C       2.2117699311    -0.1799800845     2.0711241595
   52      C       6.7518069524    -2.5525906291     0.6070585705
   53      C       7.1197755811     1.7391621731     0.7126141173
   54      C       2.8149650537     1.0651006223     2.2014110642
   55      C       6.3217734668    -1.6775927377    -3.2267410971
   56      C       4.9922393870     2.0848502387     1.9452622845
   57      C       6.2368428479     1.9158078249    -2.6980538675
   58      C       4.6075609921    -3.6930355531     0.3339127542
   59      C       1.4623578594     1.0286364898     0.3148503986
   60      C       7.9050132656     0.8048390954    -1.1680653252
   61      C       2.9042589739    -2.4823917544     1.6120245754
   62      C       6.0827097965     0.6986393736    -3.4215474497
   63      C       5.2969874749     3.0684581059    -0.3151547493
   64      C       2.8590462657    -2.0974193593    -2.9382763011
   65      C       4.1319767542    -2.7885177174    -3.0252937172
   66      C       4.4916647598     3.0253339769    -1.4270565588
   67      C       5.9305396415    -3.3820748378    -0.1610982830
   68      C       7.6329792458    -1.6702903767    -1.4116543002
   69      C       3.7606592811    -3.7355609862    -0.8123376893
   70      C       6.9703119081    -0.8022974779     1.9560402120
   71      C       3.2050137884     2.7427299656     0.4163780755
   72      C       7.7449029706    -0.3963237951    -1.9428823385
   73      C       4.9646486958     2.4871596617    -2.6383536333
   74      C       4.1461629917    -3.0919095579     1.5407542613
   75      C       2.3227531881     2.0253886654    -1.7035885969
   76      C       3.0078692099    -1.2809019445     2.3601276136
   77      C       1.3342377128    -0.0462922559    -1.9061825637
   78      C       4.4812116496     2.8870645709     0.8477602039
   79      C       3.1944603608     2.8258187234    -0.9526269952
   80      C       6.2425545800     0.2464926063     2.4649199923
   81      C       6.3714504926    -2.0301444657     1.8170230203
   82      C       2.0336966760    -2.3527351142    -1.8497511888
   83      C       2.3549798592     1.8048877168     1.1127689396
   84      C       4.8037586715     0.5905687319    -3.8809892375
   85      C       4.5518981618    -3.5848623223    -1.9632625115
   86      C       2.8922807101    -0.8842482071    -3.5855082743
   87      C       5.0479328474    -2.2265601800     2.2313609378
   88      C       2.0589978018    -2.5102096094     0.4722545469
   89      O      -9.9530134951     6.8697271650     1.5788225353
   90      C     -10.2518325625     8.1088463585     2.2392404252
   91      H      -9.8868407377     8.8974117465     1.5695811113
   92      H      -9.7326110000     8.1950601679     3.2014010916
   93      H     -11.3091284794     8.1997440577     2.5174093531
   94      O     -11.8145198370     6.8425005003     0.3508629074
   95      C     -10.8594658895     6.2395365806     0.7798995828
   96      C     -10.5435388630     4.8017841846     0.5335519389
   97      H     -11.1380341073     4.4430618582    -0.3148151379
   98      H     -10.9065014588     4.3162292454     1.4479673560
   99      C      -8.9947258980     4.5484156685     0.2091204445
  100      H      -8.7770082581     5.2847095986    -0.5749766654
  101      H      -8.3058201988     4.7544719663     1.0373442909
  102      C      -8.7129314636     3.1454230569    -0.4224241925
  103      H      -9.2280080256     2.3999412405     0.1950108216
  104      H      -9.1812111563     3.0179703143    -1.4054241558
  105      C      -7.1752259741     2.8415485666    -0.6346649094
  106      C      -6.3585751051     4.0309258610    -1.0581882376
  107      C      -5.6581837133     4.8290275400    -0.1098172089
  108      H      -5.6178731389     4.5896231042     0.9484372849
  109      C      -4.9996572173     5.9984993677    -0.6433380599
  110      H      -4.3581731407     6.5708191900     0.0211536260
  111      C      -4.9590078809     6.2328624423    -2.0262124507
  112      H      -4.3612615355     7.0891428440    -2.3241003158
  113      C      -5.6828099102     5.4408911987    -2.9017112638
  114      H      -5.7049194431     5.6828828904    -3.9597978338
  115      C      -6.4277820023     4.4109680175    -2.3780054086
  116      H      -7.0083287511     3.7804126590    -3.0451923481
  117      C      -3.8318836611    -0.9690302280    -2.8342922478
  118      C      -2.4690858821     0.0710191297    -1.0847638693
  119      C      -2.6522927736    -3.5732856709     1.6325706253
  120      C      -8.3394336215    -2.6150572380    -1.1263951677
  121      C      -5.2186692361    -2.3472804258     3.6438110364
  122      C      -3.4101516276     0.1802078965    -2.1157236531
  123      C      -7.9580278201    -3.5460029720     1.4915306630
  124      C      -2.3568273962    -3.4131019037    -0.7388265097
  125      C      -4.9869839141     1.3300052649     1.9287889197
  126      C      -8.6905564716    -1.8075948742    -0.0086866747
  127      C      -6.5361274077     1.7122905558     0.2134573504
  128      C      -6.2019806480     0.8840261995     2.4115545045
  129      C      -8.2061721525    -1.1636409598     2.1210142873
  130      C      -6.9843252080    -3.6685457533     2.5315736862
  131      C      -4.1296626799     1.4863286695    -0.3495539638
  132      C      -4.6188788484    -4.3193645719     2.3901262231
  133      C      -6.9309459394     1.4281195121    -1.1601918570
  134      C      -7.8764179791     0.1690874120    -1.2017946558
  135      C      -4.2510358513    -3.2235694906     3.1927056081
  136      C      -5.5184486081    -4.7537244384    -1.4693239649
  137      C      -3.9432531595    -4.9933196107     0.1843811031
  138      C      -3.3130825989    -4.4186812974    -0.9381329830
  139      C      -2.2995654201    -2.3080858474    -1.5438753165
  140      C      -7.3706306642    -0.7098467948    -2.1714501886
  141      C      -5.0977548760     1.8055898596     0.6287219648
  142      C      -1.9097916551    -1.2085314617    -0.7763659907
  143      C      -8.5577614545    -2.2704774182     1.2870676361
  144      C      -2.8934846125     0.8914212348    -0.0014822329
  145      C      -6.1990838602    -0.3134734542     3.2780988992
  146      C      -6.7242473854    -3.0118833336    -2.7067607812
  147      C      -2.0043776060    -2.9823561045     0.5688929564
  148      C      -7.1708330230     0.9713085980     1.3473830623
  149      C      -4.2288980956    -3.1856428115    -2.7984426530
  150      C      -7.1587223534    -1.2661787741     3.1013065473
  151      C      -3.8037996344     0.6355921622     2.2351080394
  152      C      -6.3386118041    -4.9741009497     0.8054862525
  153      C      -7.5295151394    -4.3242068019     0.4257813109
  154      C      -3.7976472738    -0.4811103491     3.0879694875
  155      C      -7.7020370385    -2.1172350274    -2.2237682321
  156      C      -8.4795715982    -0.4668367072    -0.0624539576
  157      C      -6.7218680765    -4.1193656181    -1.8490257823
  158      C      -5.7933838199     0.9639028178    -2.0818475872
  159      C      -2.1516498670    -0.7778586993     1.6283603092
  160      C      -8.1958657831    -0.0649701429     1.2269828477
  161      C      -5.0162041890    -0.9526082580     3.5696797389
  162      C      -5.4448104311    -2.5395298949    -3.1008931306
  163      C      -3.0301759693    -2.7049986855     2.7484765359
  164      C      -3.2606163859    -2.1985569441    -2.5279578641
  165      C      -3.5979336158    -4.5754391551     1.4567502860
  166      C      -2.7318822290     0.4399655284     1.3187580538
  167      C      -2.7714153990    -1.3435686852     2.7301374633
  168      C      -4.4158054754     1.1377082530    -1.7366888187
  169      C      -6.1157083051    -0.2353426652    -2.6988169524
  170      C      -5.2873201889    -5.2299052722    -0.1221430315
  171      C      -1.8268231346    -1.6245649627     0.5770553594
  172      C      -6.6050028362    -2.5781963326     3.3588829870
  173      C      -7.7168165046    -3.8470920680    -0.9042148279
  174      C      -5.9873178144    -4.5019441163     2.0708998044
  175      C      -5.1578233175    -1.1614524771    -3.1479572054
  176      C      -4.2576790725    -4.2803769514    -1.9278033372
 ----------------------------------------------------------------

    9   -5804.2909787720      8.94E-06 Convergence criterion met
 Total energy in the final basis set = -5804.2909787720

                    Orbital Energies (a.u.)
 --------------------------------------------------------------

 Alpha MOs
 -- Occupied --
-19.195 -19.182 -19.141 -19.128 -10.322 -10.312 -10.247 -10.247
-10.244 -10.243 -10.240 -10.236 -10.236 -10.235 -10.235 -10.233
-10.231 -10.230 -10.228 -10.227 -10.226 -10.225 -10.224 -10.224
-10.224 -10.223 -10.221 -10.220 -10.220 -10.220 -10.220 -10.220
-10.219 -10.219 -10.219 -10.219 -10.219 -10.219 -10.219 -10.219
-10.219 -10.219 -10.219 -10.219 -10.218 -10.218 -10.217 -10.217
-10.217 -10.217 -10.217 -10.217 -10.217 -10.217 -10.217 -10.217
-10.216 -10.216 -10.216 -10.216 -10.216 -10.216 -10.216 -10.216
-10.216 -10.216 -10.216 -10.216 -10.216 -10.216 -10.216 -10.216
-10.216 -10.215 -10.215 -10.215 -10.215 -10.215 -10.215 -10.215
-10.215 -10.214 -10.214 -10.214 -10.214 -10.214 -10.214 -10.213
-10.213 -10.213 -10.213 -10.213 -10.213 -10.213 -10.213 -10.213
-10.212 -10.212 -10.212 -10.212 -10.212 -10.212 -10.212 -10.212
-10.212 -10.212 -10.212 -10.211 -10.211 -10.211 -10.211 -10.211
-10.211 -10.210 -10.210 -10.210 -10.210 -10.210 -10.210 -10.209
-10.209 -10.209 -10.209 -10.209 -10.209 -10.209 -10.209 -10.208
-10.208 -10.208 -10.208 -10.208 -10.208 -10.208 -10.208 -10.208
-10.207 -10.204 -10.203 -10.202 -10.200 -10.200 -10.199 -10.198
-10.197 -10.197 -10.196 -10.195  -1.092  -1.086  -1.007  -1.005
 -0.984  -0.982  -0.968  -0.964  -0.962  -0.962  -0.961  -0.958
 -0.937  -0.933  -0.928  -0.927  -0.925  -0.924  -0.922  -0.921
 -0.919  -0.917  -0.897  -0.896  -0.891  -0.890  -0.887  -0.881
 -0.878  -0.872  -0.858  -0.857  -0.843  -0.841  -0.839  -0.837
 -0.836  -0.833  -0.822  -0.822  -0.805  -0.801  -0.798  -0.797
 -0.796  -0.794  -0.794  -0.792  -0.791  -0.789  -0.784  -0.782
 -0.772  -0.771  -0.768  -0.768  -0.767  -0.765  -0.765  -0.765
 -0.753  -0.752  -0.743  -0.740  -0.733  -0.733  -0.716  -0.715
 -0.715  -0.713  -0.712  -0.711  -0.710  -0.709  -0.709  -0.707
 -0.707  -0.706  -0.706  -0.705  -0.703  -0.703  -0.675  -0.670
 -0.660  -0.659  -0.657  -0.655  -0.650  -0.649  -0.632  -0.629
 -0.629  -0.626  -0.626  -0.625  -0.625  -0.623  -0.616  -0.615
 -0.615  -0.614  -0.614  -0.613  -0.613  -0.611  -0.610  -0.609
 -0.609  -0.607  -0.604  -0.600  -0.567  -0.566  -0.565  -0.563
 -0.561  -0.561  -0.560  -0.557  -0.556  -0.555  -0.555  -0.553
 -0.538  -0.536  -0.535  -0.530  -0.530  -0.527  -0.525  -0.524
 -0.524  -0.522  -0.519  -0.518  -0.517  -0.515  -0.515  -0.513
 -0.508  -0.506  -0.499  -0.494  -0.492  -0.489  -0.488  -0.487
 -0.486  -0.485  -0.484  -0.480  -0.479  -0.477  -0.474  -0.473
 -0.473  -0.471  -0.470  -0.469  -0.467  -0.466  -0.466  -0.464
 -0.464  -0.464  -0.463  -0.462  -0.461  -0.461  -0.461  -0.460
 -0.457  -0.456  -0.454  -0.453  -0.450  -0.447  -0.445  -0.444
 -0.442  -0.441  -0.440  -0.440  -0.439  -0.439  -0.436  -0.433
 -0.432  -0.429  -0.429  -0.428  -0.427  -0.426  -0.425  -0.424
 -0.423  -0.423  -0.421  -0.420  -0.420  -0.420  -0.418  -0.418
 -0.417  -0.416  -0.415  -0.415  -0.414  -0.414  -0.413  -0.412
 -0.411  -0.409  -0.409  -0.408  -0.402  -0.402  -0.398  -0.397
 -0.395  -0.394  -0.394  -0.393  -0.388  -0.387  -0.386  -0.385
 -0.383  -0.377  -0.377  -0.372  -0.371  -0.369  -0.367  -0.366
 -0.365  -0.365  -0.363  -0.362  -0.361  -0.361  -0.359  -0.358
 -0.358  -0.357  -0.357  -0.355  -0.354  -0.354  -0.353  -0.352
 -0.352  -0.351  -0.350  -0.347  -0.346  -0.346  -0.344  -0.343
 -0.342  -0.342  -0.341  -0.340  -0.339  -0.337  -0.337  -0.334
 -0.333  -0.333  -0.331  -0.329  -0.329  -0.327  -0.327  -0.325
 -0.311  -0.305  -0.302  -0.293  -0.290  -0.288  -0.271  -0.270
 -0.270  -0.269  -0.268  -0.267  -0.265  -0.264  -0.264  -0.263
 -0.262  -0.261  -0.261  -0.261  -0.260  -0.258  -0.257  -0.255
 -0.253  -0.248  -0.245  -0.241  -0.226  -0.222  -0.213  -0.211
 -0.209  -0.208  -0.207  -0.206  -0.199  -0.197

          Ground-State Mulliken Net Atomic Charges

     Atom                 Charge (a.u.)
  ----------------------------------------
      1 O                    -0.479241
      2 C                    -0.083294
      3 H                     0.126626
      4 H                     0.135339
      5 H                     0.127642
      6 O                    -0.467175
      7 C                     0.584676
      8 C                    -0.263116
      9 H                     0.146974
     10 H                     0.137575
     11 C                    -0.183883
     12 H                     0.129785
     13 H                     0.107024
     14 C                    -0.225816
     15 H                     0.112749
     16 H                     0.113356
     17 C                     0.044190
     18 C                     0.081705
     19 C                    -0.102644
     20 H                     0.089286
     21 C                    -0.094854
     22 H                     0.090781
     23 C                    -0.088150
     24 H                     0.083505
     25 C                    -0.076050
     26 H                     0.099061
     27 C                    -0.122491
     28 H                     0.100764
     29 C                    -0.014828
     30 C                     0.016270
     31 C                     0.003679
     32 C                     0.010135
     33 C                    -0.022816
     34 C                    -0.038545
     35 C                     0.013579
     36 C                    -0.002353
     37 C                    -0.028857
     38 C                     0.002554
     39 C                    -0.044575
     40 C                     0.002143
     41 C                    -0.018437
     42 C                    -0.010023
     43 C                    -0.000071
     44 C                     0.002439
     45 C                    -0.101999
     46 C                     0.000022
     47 C                     0.006941
     48 C                     0.000602
     49 C                    -0.006575
     50 C                     0.030989
     51 C                    -0.012949
     52 C                     0.025958
     53 C                     0.022542
     54 C                     0.013739
     55 C                    -0.037077
     56 C                    -0.009560
     57 C                    -0.029329
     58 C                    -0.033330
     59 C                    -0.004366
     60 C                     0.035844
     61 C                    -0.007650
     62 C                     0.014296
     63 C                    -0.020017
     64 C                     0.010195
     65 C                    -0.005661
     66 C                     0.017540
     67 C                     0.001067
     68 C                     0.003610
     69 C                     0.004585
     70 C                     0.054732
     71 C                     0.003120
     72 C                     0.012874
     73 C                     0.015225
     74 C                    -0.001260
     75 C                    -0.014580
     76 C                     0.021541
     77 C                    -0.002269
     78 C                    -0.019334
     79 C                     0.009123
     80 C                     0.016835
     81 C                     0.016900
     82 C                    -0.009953
     83 C                    -0.005839
     84 C                     0.010757
     85 C                    -0.003316
     86 C                     0.001978
     87 C                    -0.001551
     88 C                    -0.016378
     89 O                    -0.468976
     90 C                    -0.077744
     91 H                     0.126635
     92 H                     0.118621
     93 H                     0.130261
     94 O                    -0.466484
     95 C                     0.578319
     96 C                    -0.255077
     97 H                     0.134519
     98 H                     0.135524
     99 C                    -0.189635
    100 H                     0.123097
    101 H                     0.121186
    102 C                    -0.184163
    103 H                     0.110449
    104 H                     0.109856
    105 C                    -0.013181
    106 C                     0.086602
    107 C                    -0.104191
    108 H                     0.102161
    109 C                    -0.100815
    110 H                     0.091902
    111 C                    -0.078272
    112 H                     0.091513
    113 C                    -0.083254
    114 H                     0.095949
    115 C                    -0.095867
    116 H                     0.090326
    117 C                     0.000074
    118 C                    -0.016638
    119 C                    -0.022373
    120 C                    -0.000851
    121 C                    -0.008184
    122 C                    -0.003441
    123 C                    -0.014708
    124 C                    -0.016190
    125 C                     0.004521
    126 C                     0.027909
    127 C                    -0.081291
    128 C                    -0.029022
    129 C                    -0.018472
    130 C                     0.001253
    131 C                     0.027708
    132 C                     0.001283
    133 C                    -0.092907
    134 C                     0.035572
    135 C                     0.003823
    136 C                     0.004611
    137 C                     0.001977
    138 C                     0.023979
    139 C                     0.021048
    140 C                    -0.007114
    141 C                     0.020044
    142 C                    -0.021494
    143 C                    -0.007012
    144 C                    -0.014095
    145 C                     0.007934
    146 C                    -0.017034
    147 C                    -0.008267
    148 C                     0.050913
    149 C                    -0.024132
    150 C                     0.006472
    151 C                     0.004246
    152 C                    -0.015496
    153 C                     0.010417
    154 C                    -0.003841
    155 C                    -0.003064
    156 C                     0.006954
    157 C                     0.006671
    158 C                     0.023810
    159 C                     0.007792
    160 C                    -0.038852
    161 C                     0.013646
    162 C                     0.015945
    163 C                     0.009503
    164 C                     0.013464
    165 C                     0.011581
    166 C                    -0.006308
    167 C                    -0.012907
    168 C                    -0.021877
    169 C                     0.023990
    170 C                    -0.018664
    171 C                     0.037266
    172 C                    -0.033035
    173 C                    -0.005535
    174 C                     0.021450
    175 C                    -0.006913
    176 C                    -0.008041
  ----------------------------------------
  Sum of atomic charges =     0.000000

                    Cartesian Multipole Moments
 -----------------------------------------------------------------
    Charge (ESU x 10^10)
                 0.0000
    Dipole Moment (Debye)
         X       2.4738      Y       1.1063      Z       1.5491
       Tot       3.1215
    Quadrupole Moments (Debye-Ang)
        XX    -831.3014     XY     -19.1412     YY    -805.0204
        XZ       4.9757     YZ       9.0231     ZZ    -797.8591

 Total job time:  860.12s(wall), 8215.75s(cpu)
        *  Thank you very much for using Q-Chem.  Have a nice day.  *
