 Q-Chem 4.4, Q-Chem, Inc., Pleasanton, CA (2016)
 Q-Chem 4.4.2 for Intel X86 Linux

User input:
--------------------------------------------------------------
$comment
SP
$end

$rem
MEM_STATIC 5000
MEM_TOTAL 20000
JOBTYPE SP
EXCHANGE B3LYP
BASIS 6-31g(d,p)
$end

$molecule
0 1
O          16.665000     -9.817000     -6.737000
C          17.512000     -9.673000     -5.588000
H          16.963000    -10.068000     -4.725000
H          17.900000     -8.663000     -5.407000
H          18.370000    -10.344000     -5.718000
O          18.406000     -8.884000     -8.122000
C          17.246000     -9.307000     -7.934000
C          16.198000     -9.211000     -9.012000
H          15.519000     -8.398000     -8.729000
H          15.618000    -10.129000     -9.174000
C          16.716000     -8.787000    -10.390000
H          17.229000     -7.818000    -10.435000
H          17.500000     -9.432000    -10.806000
C          15.594000     -8.728000    -11.440000
H          16.032000     -8.716000    -12.446000
H          15.206000     -9.752000    -11.504000
C          14.559000     -7.597000    -11.299000
C          15.114000     -6.157000    -11.401000
C          15.206000     -5.603000    -12.687000
H          15.128000     -6.271000    -13.540000
C          15.623000     -4.244000    -12.862000
H          15.776000     -3.785000    -13.834000
C          15.789000     -3.403000    -11.781000
H          15.905000     -2.329000    -11.891000
C          15.649000     -3.972000    -10.494000
H          15.903000     -3.328000     -9.658000
C          15.428000     -5.372000    -10.288000
H          15.420000     -5.766000     -9.276000
C          10.069000     -5.679000     -8.753000
C           9.763000     -4.769000    -10.993000
C           6.409000     -7.551000    -12.156000
C          10.753000    -10.750000     -8.868000
C           8.398000     -9.696000    -14.006000
C          10.596000     -5.153000     -9.941000
C           9.276000    -11.692000    -11.113000
C           6.758000     -6.359000    -10.081000
C          11.504000     -7.197000    -13.695000
C          11.414000    -11.069000    -10.077000
C          13.177000     -7.820000    -11.984000
C          11.725000     -8.597000    -13.727000
C          11.248000    -10.942000    -12.314000
C           8.431000    -11.313000    -12.169000
C          11.683000     -5.731000    -11.846000
C           6.700000     -9.753000    -12.255000
C          13.253000     -7.872000    -10.518000
C          12.836000     -9.090000     -9.842000
C           7.252000     -9.195000    -13.396000
C           7.572000     -9.295000     -8.337000
C           6.246000     -8.732000    -10.096000
C           6.598000     -7.535000     -9.418000
C           7.771000     -5.418000     -9.716000
C          12.028000     -8.764000     -8.717000
C          12.297000     -6.715000    -12.599000
C           8.328000     -4.917000    -10.912000
C          10.672000    -11.536000    -11.192000
C          10.427000     -5.158000    -12.146000
C          10.684000     -9.452000    -14.113000
C           9.895000     -9.028000     -7.642000
C           6.675000     -6.342000    -11.492000
C          12.653000     -9.036000    -12.668000
C           8.383000     -7.017000     -7.870000
C          10.404000    -10.631000    -13.377000
C          10.257000     -6.651000    -14.082000
C           7.393000    -10.834000    -10.184000
C           8.685000    -11.333000     -9.898000
C           9.192000     -7.452000    -14.486000
C          11.113000     -9.619000     -8.145000
C          12.438000    -10.210000    -10.569000
C           8.798000     -9.863000     -7.964000
C          12.456000     -6.833000     -9.803000
C           8.351000     -5.744000    -13.182000
C          12.367000    -10.185000    -11.958000
C           9.392000     -8.916000    -14.516000
C           9.669000     -7.608000     -7.620000
C           7.068000     -7.813000    -13.343000
C           8.631000     -5.813000     -8.633000
C           6.146000     -8.717000    -11.499000
C           9.738000     -5.638000    -13.242000
C           8.018000     -6.916000    -13.884000
C          11.793000     -5.787000    -10.461000
C          11.827000     -7.377000     -8.676000
C           6.852000     -9.770000     -9.419000
C           7.677000     -5.470000    -12.003000
C           9.028000    -10.781000    -13.331000
C           9.371000    -10.900000     -8.715000
C           7.207000    -10.867000    -11.585000
C          10.660000     -6.740000     -8.124000
C           7.306000     -7.935000     -8.269000
O           1.305000     -0.276000      0.477000
C           0.558000      0.740000      1.163000
H           0.629000      1.636000      0.534000
H           0.984000      0.966000      2.148000
H          -0.467000      0.429000      1.400000
O          -0.385000     -0.922000     -0.827000
C           0.712000     -1.156000     -0.378000
C           1.536000     -2.369000     -0.656000
H           1.136000     -2.881000     -1.539000
H           1.350000     -2.993000      0.227000
C           3.079000     -2.029000     -0.924000
H           3.035000     -1.230000     -1.675000
H           3.623000     -1.624000     -0.062000
C           3.869000     -3.205000     -1.587000
H           3.644000     -4.113000     -1.015000
H           3.506000     -3.450000     -2.592000
C           5.417000     -2.921000     -1.745000
C           5.756000     -1.499000     -2.097000
C           6.092000     -0.544000     -1.096000
H           6.188000     -0.799000     -0.045000
C           6.294000      0.807000     -1.565000
H           6.665000      1.543000     -0.857000
C           6.284000      1.101000     -2.937000
H           6.537000      2.128000     -3.183000
C           5.922000      0.140000     -3.866000
H           5.842000      0.404000     -4.916000
C           5.589000     -1.112000     -3.406000
H           5.296000     -1.880000     -4.116000
C           9.976000     -5.159000     -3.923000
C          10.819000     -3.774000     -2.087000
C          11.901000     -7.353000      0.505000
C           6.332000     -8.401000     -2.455000
C           9.011000     -7.231000      2.446000
C           9.931000     -3.968000     -3.152000
C           6.955000     -9.245000      0.146000
C          12.182000     -6.992000     -1.846000
C           7.935000     -3.648000      0.858000
C           5.681000     -7.826000     -1.328000
C           6.400000     -3.778000     -0.907000
C           6.953000     -4.525000      1.276000
C           5.840000     -7.145000      0.839000
C           7.878000     -9.052000      1.221000
C           8.738000     -3.091000     -1.377000
C          10.321000     -8.794000      1.157000
C           6.173000     -4.125000     -2.304000
C           5.752000     -5.638000     -2.424000
C          10.243000     -7.676000      2.008000
C           9.746000     -9.354000     -2.748000
C          11.255000     -9.079000     -1.039000
C          11.663000     -8.266000     -2.116000
C          11.855000     -5.907000     -2.613000
C           6.569000     -6.230000     -3.399000
C           7.694000     -3.188000     -0.430000
C          11.797000     -4.776000     -1.796000
C           5.938000     -8.266000     -0.043000
C          10.096000     -3.212000     -0.997000
C           7.368000     -5.677000      2.104000
C           8.023000     -8.115000     -3.979000
C          12.318000     -6.521000     -0.512000
C           6.048000     -4.748000      0.176000
C          10.412000     -7.368000     -3.973000
C           6.826000     -6.904000      1.858000
C           9.281000     -3.879000      1.191000
C           9.001000     -9.957000     -0.517000
C           7.666000     -9.767000     -0.925000
C           9.670000     -4.954000      2.008000
C           6.774000     -7.658000     -3.509000
C           5.391000     -6.499000     -1.331000
C           8.405000     -9.183000     -3.157000
C           7.426000     -4.104000     -3.192000
C          11.350000     -4.569000      0.609000
C           5.474000     -6.079000     -0.019000
C           8.694000     -5.856000      2.424000
C           9.053000     -7.194000     -4.305000
C          11.203000     -6.731000      1.631000
C          10.947000     -6.110000     -3.632000
C          11.390000     -8.621000      0.259000
C          10.375000     -3.632000      0.314000
C          10.949000     -5.369000      1.666000
C           8.636000     -3.458000     -2.785000
C           7.579000     -5.310000     -3.859000
C          10.098000     -9.773000     -1.408000
C          11.989000     -5.193000     -0.454000
C           7.812000     -7.936000      2.097000
C           7.354000     -9.332000     -2.246000
C           9.122000     -9.446000      0.776000
C           8.820000     -5.805000     -4.297000
C          10.760000     -8.436000     -3.139000
$end

--------------------------------------------------------------

             Standard Nuclear Orientation (Angstroms)
    I     Atom           X                Y                Z
 ----------------------------------------------------------------
    1      O       4.4829645693    -6.6160376830     0.4629049852
    2      C       3.7626148045    -7.7991593097     0.8366233722
    3      H       2.9129144296    -7.8955805920     0.1503965807
    4      H       3.4561397504    -7.8568219315     1.8883614875
    5      H       4.4050267920    -8.6630751608     0.6262398165
    6      O       6.0900356221    -7.0585332129     2.2068417207
    7      C       5.6030899292    -6.3484930561     1.3020766308
    8      C       6.1130766918    -4.9540218817     1.0471891151
    9      H       5.3640551901    -4.2597132526     1.4459388081
   10      H       6.3017674826    -4.7180288130    -0.0083065301
   11      C       7.3925089406    -4.5788638510     1.8017045707
   12      H       7.3439100326    -4.6451199224     2.8959638084
   13      H       8.2487519679    -5.2384710721     1.6132816633
   14      C       7.8603915894    -3.1500755844     1.4784169030
   15      H       8.9052558942    -3.0259682075     1.7896723346
   16      H       8.0687081180    -3.1525331036     0.4014702077
   17      C       7.0044461172    -1.9911416214     2.0210921446
   18      C       6.8829723883    -1.9044561682     3.5604942251
   19      C       7.8793552576    -1.1824092958     4.2350648232
   20      H       8.7920128748    -0.9424710294     3.6971032056
   21      C       7.7923723220    -0.9765574037     5.6497923473
   22      H       8.5657808564    -0.4849573064     6.2320659799
   23      C       6.6633015076    -1.3370931015     6.3559163497
   24      H       6.4874667042    -1.0142401429     7.3776208515
   25      C       5.6519576785    -2.0257002286     5.6468790559
   26      H       4.8291116569    -2.4087962400     6.2421183949
   27      C       5.7995143631    -2.4194558394     4.2777696579
   28      H       5.0278833280    -3.0257357658     3.8125232755
   29      C       2.4814697286     1.1053759594     1.4964937648
   30      C       4.0534166962     2.7233166276     2.4187663522
   31      C       4.5972021492     5.0538884584    -1.4040783115
   32      C       4.3412818594    -1.1199025542    -2.7207750640
   33      C       7.6141767046     3.5835586179    -2.2500338021
   34      C       3.5681840453     1.4179892000     2.3253930083
   35      C       6.0122011602     0.8225836786    -3.9632298622
   36      C       2.5661830925     4.1936016573    -0.4125349634
   37      C       7.8030757422     1.7614910650     1.3043079071
   38      C       5.7472311690    -1.1934998608    -2.5856714912
   39      C       7.1361280006    -0.6196067810     1.2927858470
   40      C       8.3291538993     1.1211164446     0.1540787481
   41      C       7.6014603570     0.0430731802    -2.3018137228
   42      C       6.4977777758     2.1378571145    -3.8791279047
   43      C       5.8232736656     1.2394483665     2.4908377880
   44      C       5.4453690644     4.1157018973    -3.2326583235
   45      C       5.8991204665    -1.3927222502     1.1203305435
   46      C       5.5065213153    -1.7877035831    -0.2228912003
   47      C       6.4911972487     4.3966350730    -2.3693687084
   48      C       2.2212582936     1.7087851062    -2.8683325101
   49      C       3.0816795135     3.8101764709    -2.7536343988
   50      C       2.2716706135     3.6101726606    -1.6045995612
   51      C       2.3602156632     3.5174536925     0.8305564845
   52      C       4.1152565731    -1.5525065640    -0.4068199346
   53      C       7.0085567020     0.7622315301     1.9620380012
   54      C       3.4728657864     3.8009717140     1.6511009590
   55      C       6.5736045760    -0.2216012112    -3.2056698839
   56      C       5.4322087429     2.5969884802     2.4865873752
   57      C       8.5173204005     1.8591917347    -1.0221611228
   58      C       2.4307386089    -0.4173191784    -1.6908599762
   59      C       3.7627293521     4.9344844023    -0.2803653489
   60      C       7.8906568257    -0.2834301530     0.0523183839
   61      C       1.4539216838     1.6030320601    -0.5305761454
   62      C       8.1135963944     1.3377309743    -2.2772398463
   63      C       7.4995039357     3.1437043876     1.2893249551
   64      C       4.2208404666     2.2050667198    -4.1202696864
   65      C       4.6162041808     0.8500468079    -4.0326935934
   66      C       7.6782264837     3.9281588055     0.1527812836
   67      C       3.5144809679    -1.3701363320    -1.6320724681
   68      C       6.3189211115    -1.5009535381    -1.3179318310
   69      C       2.5354593790     0.3427854583    -2.8806467224
   70      C       4.6602678935    -0.7300962040     1.6224520679
   71      C       5.7101762380     4.5752590646     1.1691475980
   72      C       7.4985021622    -0.7775141175    -1.1757666114
   73      C       8.2133322292     3.2821501304    -1.0639892916
   74      C       1.9055765442     0.2386494562    -0.5238681356
   75      C       5.9663366829     4.9908827494    -1.2213355706
   76      C       1.8615373813     2.1717745604     0.7357849450
   77      C       4.2652658299     4.5604106745    -2.6315439756
   78      C       6.2662438117     3.5124022245     1.8760628622
   79      C       6.5411213713     4.7796750216     0.0533423722
   80      C       4.6713715924     0.4756667509     2.3384558421
   81      C       3.5928566862    -0.9370644889     0.7395571458
   82      C       3.0296246659     2.6444692238    -3.4894508887
   83      C       4.3387122620     4.6583204858     0.9914389515
   84      C       7.5869864324     2.3833151830    -3.0171233577
   85      C       3.7188133047    -0.1200712934    -3.4748992900
   86      C       5.3836696167     3.0079342449    -4.0788196595
   87      C       2.4723773852    -0.0332461650     0.7387999038
   88      C       1.6581501194     2.3551020057    -1.7773862926
   89      O     -10.5609620196     5.6975383109     1.4915915418
   90      C     -11.7483966880     6.3254306785     1.9981594869
   91      H     -11.4353546366     6.8699264407     2.8976187905
   92      H     -12.5119037721     5.5899497071     2.2790539031
   93      H     -12.2591503449     6.9406365359     1.2470486729
   94      O      -9.8821462618     7.4685031849     0.3182524680
   95      C      -9.7826355954     6.2849226957     0.5396138310
   96      C      -8.8641036153     5.3344287677    -0.1535595199
   97      H      -8.0953986944     5.9032953669    -0.6895786771
   98      H      -9.5237692313     4.8556735237    -0.8879270650
   99      C      -8.1350426533     4.3227464201     0.8530396761
  100      H      -7.7310833784     4.9854620410     1.6289023637
  101      H      -8.7983015194     3.6104086361     1.3586754718
  102      C      -6.9039475501     3.5946345153     0.2198707404
  103      H      -7.2230058940     3.1981934108    -0.7513703336
  104      H      -6.0930572325     4.2819172642    -0.0483051645
  105      C      -6.2526108785     2.5078035253     1.1666985703
  106      C      -6.2335103562     2.8822165961     2.6228438317
  107      C      -7.2607034946     2.4601195401     3.5137031538
  108      H      -8.0673172510     1.7981102359     3.2137699459
  109      C      -7.1712086508     2.9771051605     4.8593191990
  110      H      -7.8641634664     2.5907572124     5.6017138963
  111      C      -6.0622976378     3.7343637297     5.2664995332
  112      H      -6.0525417594     3.9942452120     6.3208336538
  113      C      -5.1063075182     4.1414842298     4.3511079286
  114      H      -4.2970520916     4.7930757678     4.6659572930
  115      C      -5.2676483746     3.7688798314     3.0376666127
  116      H      -4.5334284751     4.0819021946     2.3009773028
  117      C      -1.9303780159    -0.9276978925     1.3957009502
  118      C      -3.6188664953    -2.0107872595     2.8012948027
  119      C      -4.4121773385    -5.3332436150    -0.2037627129
  120      C      -3.6629193591     0.2372874851    -3.2503117020
  121      C      -7.2595566334    -3.8613620050    -1.5677497644
  122      C      -2.9730191114    -0.8510858862     2.3558973606
  123      C      -5.4476892095    -1.7866737822    -4.0144081419
  124      C      -2.3549150384    -4.3264835311     0.4966578481
  125      C      -7.3428590488    -1.0174873258     1.3344643071
  126      C      -5.0688213495     0.4285790034    -3.1435308596
  127      C      -6.3534154488     1.0210370413     0.7396788274
  128      C      -7.8283494454    -0.7152729647     0.0770293964
  129      C      -7.1028415719    -0.4945209710    -2.7012875190
  130      C      -6.0884870230    -2.9798929367    -3.5557043034
  131      C      -5.2435120731    -0.4232430668     2.4252892409
  132      C      -5.1665204538    -4.8474484504    -2.2514332240
  133      C      -5.1172918025     1.7485971114     0.4823819647
  134      C      -4.7285310369     1.6332331059    -1.0395793401
  135      C      -6.2702988804    -4.8066843243    -1.3795269957
  136      C      -1.8091608235    -2.7227412900    -2.5785506263
  137      C      -2.8024351461    -4.6643470482    -1.8595511828
  138      C      -1.9432928030    -4.2099797562    -0.8383818539
  139      C      -2.1304468683    -3.3289704723     1.4060668529
  140      C      -3.3864864878     1.2293246992    -1.1055522671
  141      C      -6.4454217799    -0.0558027182     1.7798787925
  142      C      -3.2006219768    -3.2839543594     2.3020092545
  143      C      -5.9633639818    -0.5378914742    -3.5637716181
  144      C      -5.0163529515    -1.7478896772     2.8690403998
  145      C      -8.0524520451    -1.8359464026    -0.8604043721
  146      C      -1.7628009081    -0.3187331610    -2.0908963693
  147      C      -3.6076226545    -4.9081227446     0.8317883511
  148      C      -7.1499066054     0.4649482179    -0.3978887785
  149      C      -1.0670681703    -2.0092976452    -0.3811263023
  150      C      -7.6845422607    -1.6961289755    -2.1661235141
  151      C      -7.0467974046    -2.3475339574     1.6798473709
  152      C      -3.8690781065    -3.3778688488    -3.6846897083
  153      C      -4.0832376011    -2.0352115594    -4.0537372854
  154      C      -7.2940179594    -3.4156966370     0.8010154829
  155      C      -2.7901293861     0.6293434749    -2.2793025548
  156      C      -5.5693808361     1.1167794265    -2.0848248674
  157      C      -2.0191565334    -1.3811929798    -2.9670772450
  158      C      -3.8639521963     1.1575410378     1.1447916184
  159      C      -5.5366190913    -3.9882707307     2.0304601241
  160      C      -6.8082529761     0.5712892462    -1.8159953976
  161      C      -7.7680732487    -3.1259106098    -0.4759072403
  162      C      -1.3522072960    -0.6885343733    -0.7831972644
  163      C      -5.8491907167    -5.0873032205    -0.0754277090
  164      C      -1.5298734567    -2.1778394406     0.9389020800
  165      C      -4.0202215210    -5.2325583785    -1.5325569483
  166      C      -5.9310404096    -2.7377444987     2.4734442847
  167      C      -6.3794108536    -4.4344447411     1.0261291040
  168      C      -3.9436692762     0.2011300135     2.2059175015
  169      C      -2.8661610729     0.9388435684     0.2070718890
  170      C      -2.7213452320    -3.7853086798    -2.9445221375
  171      C      -4.1768460231    -4.2167487815     1.8677303377
  172      C      -7.2089042868    -2.9613909312    -2.6830584239
  173      C      -3.1769572189    -1.0087054586    -3.6580719043
  174      C      -5.1035224455    -3.9143196842    -3.3159368438
  175      C      -1.8586870065    -0.0307898679     0.3545744475
  176      C      -1.3470263293    -3.0498021462    -1.2734590948
 ----------------------------------------------------------------

    9   -5804.2893322194      8.85E-06 Convergence criterion met
 Total energy in the final basis set = -5804.2893322194

                    Orbital Energies (a.u.)
 --------------------------------------------------------------

 Alpha MOs
 -- Occupied --
-19.198 -19.182 -19.151 -19.128 -10.329 -10.312 -10.249 -10.247
-10.244 -10.243 -10.243 -10.243 -10.238 -10.236 -10.235 -10.234
-10.233 -10.230 -10.229 -10.228 -10.227 -10.226 -10.226 -10.225
-10.224 -10.224 -10.223 -10.223 -10.222 -10.221 -10.221 -10.221
-10.221 -10.221 -10.220 -10.220 -10.220 -10.220 -10.220 -10.220
-10.219 -10.219 -10.219 -10.219 -10.218 -10.218 -10.218 -10.217
-10.217 -10.217 -10.217 -10.217 -10.217 -10.217 -10.217 -10.217
-10.217 -10.217 -10.217 -10.217 -10.216 -10.216 -10.216 -10.216
-10.216 -10.216 -10.216 -10.215 -10.215 -10.215 -10.215 -10.215
-10.215 -10.215 -10.215 -10.215 -10.215 -10.215 -10.215 -10.214
-10.214 -10.214 -10.214 -10.214 -10.214 -10.213 -10.213 -10.213
-10.213 -10.213 -10.213 -10.213 -10.213 -10.213 -10.213 -10.212
-10.212 -10.212 -10.212 -10.212 -10.212 -10.212 -10.212 -10.212
-10.212 -10.212 -10.211 -10.211 -10.211 -10.211 -10.211 -10.211
-10.210 -10.210 -10.210 -10.210 -10.210 -10.210 -10.210 -10.210
-10.209 -10.209 -10.209 -10.209 -10.209 -10.209 -10.209 -10.208
-10.208 -10.208 -10.208 -10.208 -10.207 -10.207 -10.207 -10.207
-10.207 -10.205 -10.204 -10.204 -10.203 -10.203 -10.202 -10.200
-10.200 -10.199 -10.196 -10.193  -1.092  -1.078  -1.010  -1.005
 -0.982  -0.982  -0.967  -0.964  -0.962  -0.961  -0.959  -0.957
 -0.935  -0.933  -0.928  -0.925  -0.924  -0.923  -0.921  -0.920
 -0.918  -0.917  -0.898  -0.896  -0.890  -0.887  -0.883  -0.881
 -0.873  -0.870  -0.857  -0.853  -0.841  -0.841  -0.839  -0.836
 -0.833  -0.832  -0.822  -0.822  -0.807  -0.801  -0.796  -0.796
 -0.796  -0.795  -0.794  -0.792  -0.790  -0.790  -0.782  -0.779
 -0.771  -0.770  -0.768  -0.767  -0.766  -0.766  -0.765  -0.764
 -0.753  -0.748  -0.744  -0.743  -0.734  -0.733  -0.719  -0.716
 -0.713  -0.712  -0.711  -0.710  -0.709  -0.709  -0.708  -0.707
 -0.706  -0.706  -0.705  -0.703  -0.702  -0.701  -0.672  -0.670
 -0.660  -0.658  -0.656  -0.655  -0.649  -0.647  -0.632  -0.629
 -0.626  -0.626  -0.625  -0.624  -0.623  -0.620  -0.617  -0.616
 -0.615  -0.614  -0.614  -0.614  -0.613  -0.610  -0.609  -0.609
 -0.607  -0.607  -0.600  -0.600  -0.568  -0.566  -0.563  -0.563
 -0.561  -0.558  -0.557  -0.557  -0.555  -0.554  -0.554  -0.553
 -0.538  -0.537  -0.535  -0.530  -0.527  -0.527  -0.524  -0.523
 -0.522  -0.522  -0.521  -0.518  -0.516  -0.515  -0.513  -0.510
 -0.507  -0.506  -0.506  -0.495  -0.494  -0.489  -0.487  -0.487
 -0.485  -0.484  -0.482  -0.480  -0.479  -0.477  -0.473  -0.473
 -0.471  -0.471  -0.470  -0.469  -0.468  -0.466  -0.466  -0.465
 -0.464  -0.463  -0.463  -0.462  -0.462  -0.461  -0.461  -0.458
 -0.457  -0.456  -0.455  -0.453  -0.450  -0.447  -0.445  -0.445
 -0.442  -0.442  -0.440  -0.439  -0.438  -0.437  -0.432  -0.432
 -0.430  -0.429  -0.428  -0.426  -0.426  -0.425  -0.424  -0.423
 -0.422  -0.422  -0.421  -0.420  -0.419  -0.418  -0.418  -0.417
 -0.416  -0.416  -0.415  -0.415  -0.414  -0.413  -0.412  -0.411
 -0.411  -0.409  -0.409  -0.408  -0.403  -0.402  -0.402  -0.398
 -0.394  -0.394  -0.393  -0.392  -0.387  -0.385  -0.383  -0.382
 -0.379  -0.377  -0.376  -0.372  -0.372  -0.369  -0.366  -0.365
 -0.364  -0.363  -0.362  -0.362  -0.361  -0.360  -0.359  -0.358
 -0.358  -0.356  -0.355  -0.355  -0.354  -0.354  -0.352  -0.352
 -0.350  -0.350  -0.349  -0.347  -0.346  -0.344  -0.343  -0.342
 -0.341  -0.341  -0.340  -0.339  -0.338  -0.337  -0.335  -0.334
 -0.333  -0.331  -0.330  -0.329  -0.328  -0.326  -0.326  -0.324
 -0.308  -0.305  -0.301  -0.293  -0.290  -0.288  -0.278  -0.270
 -0.269  -0.269  -0.268  -0.266  -0.266  -0.264  -0.264  -0.263
 -0.261  -0.261  -0.260  -0.260  -0.259  -0.258  -0.255  -0.254
 -0.253  -0.251  -0.246  -0.244  -0.225  -0.222  -0.213  -0.211
 -0.209  -0.208  -0.208  -0.206  -0.198  -0.195

          Ground-State Mulliken Net Atomic Charges

     Atom                 Charge (a.u.)
  ----------------------------------------
      1 O                    -0.477745
      2 C                    -0.085566
      3 H                     0.122289
      4 H                     0.129415
      5 H                     0.125931
      6 O                    -0.469253
      7 C                     0.612520
      8 C                    -0.254271
      9 H                     0.142547
     10 H                     0.134169
     11 C                    -0.180416
     12 H                     0.120844
     13 H                     0.109168
     14 C                    -0.210965
     15 H                     0.107593
     16 H                     0.104816
     17 C                     0.024751
     18 C                     0.078363
     19 C                    -0.103143
     20 H                     0.096930
     21 C                    -0.093412
     22 H                     0.090322
     23 C                    -0.071129
     24 H                     0.097928
     25 C                    -0.101842
     26 H                     0.090015
     27 C                    -0.103139
     28 H                     0.095341
     29 C                     0.003227
     30 C                     0.006935
     31 C                     0.009066
     32 C                     0.003430
     33 C                    -0.000654
     34 C                    -0.017513
     35 C                     0.003137
     36 C                    -0.001682
     37 C                     0.004968
     38 C                     0.005964
     39 C                    -0.088909
     40 C                    -0.002972
     41 C                     0.001877
     42 C                    -0.002093
     43 C                     0.003131
     44 C                     0.021492
     45 C                    -0.082642
     46 C                     0.039174
     47 C                     0.023798
     48 C                     0.040421
     49 C                    -0.005237
     50 C                     0.044308
     51 C                    -0.026080
     52 C                     0.019539
     53 C                     0.032697
     54 C                    -0.004120
     55 C                    -0.025435
     56 C                     0.012230
     57 C                    -0.024550
     58 C                    -0.005096
     59 C                    -0.012710
     60 C                     0.022355
     61 C                    -0.031631
     62 C                     0.014249
     63 C                     0.011525
     64 C                    -0.005686
     65 C                     0.018485
     66 C                    -0.017303
     67 C                    -0.028568
     68 C                    -0.017932
     69 C                     0.005059
     70 C                     0.029238
     71 C                    -0.004298
     72 C                     0.015938
     73 C                    -0.014714
     74 C                     0.003246
     75 C                     0.000701
     76 C                     0.001864
     77 C                    -0.011418
     78 C                    -0.007402
     79 C                    -0.008904
     80 C                     0.000605
     81 C                     0.007277
     82 C                    -0.008042
     83 C                     0.021612
     84 C                    -0.003396
     85 C                    -0.011479
     86 C                    -0.039261
     87 C                    -0.002908
     88 C                    -0.044923
     89 O                    -0.469059
     90 C                    -0.077564
     91 H                     0.126594
     92 H                     0.118516
     93 H                     0.130284
     94 O                    -0.466061
     95 C                     0.578056
     96 C                    -0.255297
     97 H                     0.134734
     98 H                     0.135510
     99 C                    -0.189912
    100 H                     0.123197
    101 H                     0.121087
    102 C                    -0.183882
    103 H                     0.110478
    104 H                     0.110190
    105 C                    -0.013030
    106 C                     0.086222
    107 C                    -0.103918
    108 H                     0.102008
    109 C                    -0.101024
    110 H                     0.091645
    111 C                    -0.078159
    112 H                     0.091328
    113 C                    -0.083604
    114 H                     0.096305
    115 C                    -0.095706
    116 H                     0.091052
    117 C                    -0.000225
    118 C                    -0.012588
    119 C                    -0.021967
    120 C                    -0.000985
    121 C                    -0.007372
    122 C                    -0.003951
    123 C                    -0.013804
    124 C                    -0.014642
    125 C                     0.003412
    126 C                     0.027576
    127 C                    -0.081879
    128 C                    -0.028803
    129 C                    -0.018907
    130 C                    -0.000194
    131 C                     0.027522
    132 C                     0.002430
    133 C                    -0.092781
    134 C                     0.035576
    135 C                     0.003210
    136 C                     0.004997
    137 C                     0.000725
    138 C                     0.022350
    139 C                     0.016875
    140 C                    -0.007161
    141 C                     0.021104
    142 C                    -0.023975
    143 C                    -0.006616
    144 C                    -0.015632
    145 C                     0.008064
    146 C                    -0.018616
    147 C                    -0.010656
    148 C                     0.050336
    149 C                    -0.018934
    150 C                     0.006391
    151 C                     0.005653
    152 C                    -0.015924
    153 C                     0.009467
    154 C                    -0.003798
    155 C                    -0.001853
    156 C                     0.007651
    157 C                     0.007314
    158 C                     0.023857
    159 C                     0.003167
    160 C                    -0.037979
    161 C                     0.013318
    162 C                     0.019221
    163 C                     0.008050
    164 C                     0.012319
    165 C                     0.010646
    166 C                    -0.004347
    167 C                    -0.011017
    168 C                    -0.020455
    169 C                     0.023792
    170 C                    -0.018610
    171 C                     0.035432
    172 C                    -0.032534
    173 C                    -0.004916
    174 C                     0.020782
    175 C                    -0.001820
    176 C                    -0.010332
  ----------------------------------------
  Sum of atomic charges =     0.000000

                    Cartesian Multipole Moments
 -----------------------------------------------------------------
    Charge (ESU x 10^10)
                 0.0000
    Dipole Moment (Debye)
         X      -0.6660      Y      -0.7256      Z       3.3755
       Tot       3.5162
    Quadrupole Moments (Debye-Ang)
        XX    -780.8862     XY       5.7320     YY    -834.0780
        XZ     -12.2069     YZ      14.9982     ZZ    -793.7985

 Total job time:  833.39s(wall), 7933.06s(cpu)
        *  Thank you very much for using Q-Chem.  Have a nice day.  *
