 Q-Chem 4.4, Q-Chem, Inc., Pleasanton, CA (2016)
 Q-Chem 4.4.2 for Intel X86 Linux

User input:
--------------------------------------------------------------
$comment
SP
$end

$rem
MEM_STATIC 5000
MEM_TOTAL 20000
JOBTYPE SP
EXCHANGE B3LYP
BASIS 6-31g(d,p)
$end

$molecule
0 1
O          16.060000     15.307000      0.114000
C          17.360000     15.914000      0.310000
H          17.896000     15.947000     -0.647000
H          17.814000     15.390000      1.160000
H          17.209000     16.983000      0.501000
O          15.137000     17.131000     -1.027000
C          15.141000     15.973000     -0.552000
C          13.911000     15.054000     -0.793000
H          13.221000     15.691000     -1.359000
H          13.348000     15.078000      0.149000
C          14.210000     13.725000     -1.479000
H          13.319000     13.392000     -2.024000
H          15.030000     13.800000     -2.205000
C          14.479000     12.645000     -0.388000
H          14.887000     13.052000      0.545000
H          13.464000     12.308000     -0.142000
C          15.406000     11.553000     -0.952000
C          16.860000     11.933000     -0.699000
C          17.519000     12.717000     -1.640000
H          16.907000     13.056000     -2.471000
C          18.808000     13.182000     -1.313000
H          19.349000     13.834000     -1.992000
C          19.411000     12.908000     -0.117000
H          20.306000     13.452000      0.169000
C          18.758000     12.034000      0.738000
H          19.294000     11.873000      1.668000
C          17.464000     11.628000      0.524000
H          16.834000     11.139000      1.262000
C          17.076000      8.300000     -5.167000
C          17.777000      7.044000     -3.144000
C          14.492000      3.819000     -3.521000
C          12.177000      9.506000     -4.808000
C          12.334000      5.174000     -1.042000
C          17.526000      8.218000     -3.822000
C          10.799000      7.506000     -3.404000
C          15.893000      4.905000     -5.262000
C          15.343000      7.822000     -0.087000
C          11.808000      9.680000     -3.454000
C          15.052000     10.043000     -0.944000
C          14.006000      8.186000      0.013000
C          11.661000      8.653000     -1.445000
C          10.921000      6.305000     -2.721000
C          17.038000      8.525000     -1.612000
C          12.300000      4.452000     -3.374000
C          15.116000     10.816000     -2.226000
C          13.929000     10.910000     -3.110000
C          12.788000      4.286000     -2.076000
C          13.201000      6.724000     -6.474000
C          13.427000      4.750000     -5.567000
C          14.722000      5.179000     -5.960000
C          16.833000      5.930000     -5.089000
C          14.286000     10.653000     -4.475000
C          16.045000      8.880000     -0.686000
C          17.329000      5.875000     -3.769000
C          11.163000      8.680000     -2.763000
C          17.413000      7.198000     -1.794000
C          12.985000      7.128000     -0.015000
C          13.793000      9.054000     -6.224000
C          15.735000      4.238000     -4.014000
C          13.801000      9.452000     -0.569000
C          15.551000      7.431000     -6.491000
C          11.803000      7.414000     -0.794000
C          15.694000      6.474000     -0.293000
C          11.430000      6.050000     -4.939000
C          11.080000      7.347000     -4.714000
C          14.765000      5.436000     -0.386000
C          13.370000     10.030000     -5.291000
C          12.759000     10.272000     -2.591000
C          12.836000      8.063000     -6.307000
C          16.157000     10.218000     -3.230000
C          16.468000      4.882000     -1.743000
C          12.648000      9.624000     -1.348000
C          13.364000      5.756000     -0.239000
C          15.195000      8.724000     -6.280000
C          14.189000      3.922000     -2.167000
C          16.707000      7.156000     -5.751000
C          13.304000      4.043000     -4.314000
C          16.755000      6.113000     -1.145000
C          15.150000      4.530000     -1.339000
C          17.121000      9.183000     -2.873000
C          15.638000     10.257000     -4.539000
C          12.459000      5.726000     -5.874000
C          16.689000      4.783000     -3.116000
C          11.450000      6.215000     -1.405000
C          11.797000      8.335000     -5.405000
C          11.321000      5.417000     -3.706000
C          16.155000      9.356000     -5.463000
C          14.550000      6.395000     -6.599000
O          21.234000      3.676000     -0.627000
C          20.139000      4.629000     -0.860000
H          19.172000      4.111000     -0.871000
H          20.405000      5.149000     -1.789000
H          20.085000      5.317000     -0.007000
O          22.759000      5.387000     -0.611000
C          22.518000      4.190000     -0.544000
C          23.609000      3.050000     -0.449000
H          23.609000      2.704000      0.592000
H          24.520000      3.638000     -0.614000
C          23.269000      1.780000     -1.269000
H          22.421000      1.993000     -1.931000
H          24.072000      1.608000     -1.996000
C          23.006000      0.521000     -0.397000
H          23.180000     -0.356000     -1.031000
H          23.846000      0.377000      0.294000
C          21.706000      0.487000      0.398000
C          21.834000      0.914000      1.828000
C          22.570000      0.111000      2.666000
H          22.946000     -0.805000      2.220000
C          22.995000      0.647000      3.874000
H          23.622000      0.093000      4.567000
C          22.425000      1.859000      4.337000
H          22.726000      2.159000      5.337000
C          21.607000      2.659000      3.561000
H          21.255000      3.627000      3.904000
C          21.328000      2.159000      2.297000
H          20.846000      2.867000      1.629000
C          17.519000     -2.690000      2.072000
C          16.473000     -0.501000      1.913000
C          14.083000     -1.382000     -1.888000
C          19.866000     -3.938000     -2.329000
C          16.371000      0.242000     -4.049000
C          17.608000     -1.285000      2.257000
C          18.510000     -2.715000     -4.398000
C          14.439000     -2.749000      0.072000
C          18.349000      1.746000     -0.911000
C          20.371000     -2.755000     -2.841000
C          20.392000      0.604000     -0.331000
C          19.064000      1.423000     -2.098000
C          19.775000     -0.716000     -3.709000
C          17.397000     -1.916000     -4.736000
C          18.360000      0.591000      1.250000
C          15.153000     -1.896000     -3.829000
C          20.750000     -0.710000      0.249000
C          20.959000     -1.879000     -0.647000
C          15.213000     -0.488000     -3.674000
C          16.607000     -4.932000     -1.649000
C          14.806000     -3.678000     -2.177000
C          14.846000     -3.772000     -0.780000
C          15.183000     -2.450000      1.250000
C          20.313000     -2.948000     -0.099000
C          19.091000      1.176000      0.156000
C          15.288000     -1.078000      1.444000
C          19.698000     -2.120000     -3.918000
C          16.951000      0.672000      1.310000
C          18.297000      1.171000     -3.281000
C          18.739000     -4.775000     -0.496000
C          14.093000     -1.519000     -0.497000
C          20.213000      0.674000     -1.719000
C          16.678000     -4.322000      0.748000
C          18.616000      0.014000     -4.048000
C          16.938000      1.798000     -0.904000
C          16.619000     -3.779000     -3.786000
C          18.058000     -3.957000     -3.842000
C          16.234000      1.515000     -2.049000
C          19.871000     -3.984000     -0.926000
C          20.867000     -1.718000     -2.051000
C          17.997000     -5.071000     -1.677000
C          19.843000     -1.299000      1.312000
C          15.089000      0.704000     -0.270000
C          20.522000     -0.468000     -2.537000
C          16.903000      1.239000     -3.256000
C          18.058000     -4.436000      0.709000
C          14.586000     -0.190000     -2.446000
C          16.317000     -3.199000      1.537000
C          14.425000     -2.468000     -2.754000
C          16.213000      1.282000      0.218000
C          15.086000      0.838000     -1.635000
C          18.770000     -0.609000      1.823000
C          19.736000     -2.653000      1.110000
C          15.914000     -4.364000     -2.741000
C          14.620000     -0.508000      0.361000
C          17.477000     -0.530000     -4.563000
C          18.710000     -4.593000     -2.789000
C          16.226000     -2.609000     -4.393000
C          18.564000     -3.334000      1.463000
C          15.932000     -4.604000     -0.426000
$end

--------------------------------------------------------------

             Standard Nuclear Orientation (Angstroms)
    I     Atom           X                Y                Z
 ----------------------------------------------------------------
    1      O      10.7572176767     3.7425470982    -1.3197563959
    2      C      10.9642437890     5.0689696003    -0.7769778640
    3      H      10.9580227387     5.0203495616     0.3193028439
    4      H      10.2452816915     5.7210391485    -1.2879483196
    5      H      12.0058949152     5.3535077851    -0.9668303140
    6      O      12.8786523173     2.9372275527    -0.7437689871
    7      C      11.7170816535     2.8501261426    -1.2017776521
    8      C      11.1978246333     1.4671295068    -1.6847211813
    9      H      12.0568515045     0.8027491247    -1.5334051467
   10      H      11.2675296163     1.5026782312    -2.7796122734
   11      C       9.9229554258     0.9730325565    -1.0088404910
   12      H       9.9064303499    -0.1229491986    -1.0274392664
   13      H       9.8542547496     1.2846478610     0.0415295006
   14      C       8.6953661143     1.4388588649    -1.8485263444
   15      H       8.8697984410     2.3650505245    -2.4091905694
   16      H       8.6199892900     0.6476073182    -2.6051962355
   17      C       7.4636817817     1.5833231871    -0.9364009339
   18      C       7.4056278406     2.9979550297    -0.3725113261
   19      C       8.0824901815     3.2736918356     0.8108079822
   20      H       8.6651391124     2.4502956277     1.2140013703
   21      C       8.1420404012     4.6174984746     1.2295113238
   22      H       8.6952520707     4.8942866050     2.1217955720
   23      C       7.5831185056     5.6397701552     0.5142016526
   24      H       7.8293211798     6.6669090867     0.7654522419
   25      C       6.8282009104     5.2987562557    -0.5971574004
   26      H       6.4252250609     6.1629287665    -1.1157452293
   27      C       6.8137698704     4.0259500318    -1.1117679924
   28      H       6.4338804007     3.7545671540    -2.0929409255
   29      C       4.3734334036    -0.1698209595     3.3663870649
   30      C       2.7564179735     1.0728263121     1.9512705123
   31      C       0.6029030326    -2.7062849319     0.3973494703
   32      C       6.8109331167    -3.5966702667     0.5559036592
   33      C       2.2045037217    -2.7865451926    -2.7754826279
   34      C       4.0227918397     0.8607084297     2.4535296435
   35      C       5.1138498903    -4.5667126531    -1.4563155861
   36      C       1.4575007798    -2.1544492343     2.6641573698
   37      C       3.8161865197     0.8997339480    -1.8856317099
   38      C       6.9255007229    -3.1495275909    -0.7807678379
   39      C       6.1145857312     0.8655545759    -1.2014067212
   40      C       4.5145258387    -0.0243953411    -2.6526859795
   41      C       5.7582914103    -2.5333041881    -2.6166082827
   42      C       3.8559740670    -4.4640734881    -2.0316308171
   43      C       4.2008827329     1.6895310589     0.3327209102
   44      C       1.7843613065    -4.2196340540    -0.8440581105
   45      C       6.9799659738     0.4821890060    -0.0398143333
   46      C       7.4897268751    -0.9038200066     0.0957726887
   47      C       1.3483844793    -3.2067663272    -1.7011037185
   48      C       4.0603631589    -4.4273101911     2.3747104723
   49      C       2.0101284100    -4.3487078089     1.6258712773
   50      C       2.1142349342    -3.3800878243     2.6585629820
   51      C       2.1641339834    -1.0101405021     3.0583413890
   52      C       7.3002679223    -1.3902617850     1.4315131954
   53      C       4.7051441489     1.4648799875    -0.9575512783
   54      C       1.8296729263     0.0525218069     2.1921280098
   55      C       6.0662948560    -3.6046368123    -1.7544961753
   56      C       2.8509569989     1.5161842499     0.6196519063
   57      C       3.7820034422    -1.1692467476    -3.2142153159
   58      C       6.1003399833    -3.1480900464     2.5843634652
   59      C       0.7227006170    -1.8339153506     1.4874315096
   60      C       5.8456894008    -0.1235002806    -2.2035904641
   61      C       4.1029829211    -2.3328061877     3.6529414904
   62      C       4.4622540770    -2.4418971682    -3.1560691128
   63      C       2.4553552765     0.6886090156    -1.5918535784
   64      C       3.7228252115    -5.2650246359     0.1094853967
   65      C       5.0324913743    -5.0580555437    -0.2023997374
   66      C       1.7243613112    -0.4094898826    -2.0489756983
   67      C       7.0435331464    -2.7292721451     1.6163902101
   68      C       7.1378683407    -1.7670482888    -0.9888182502
   69      C       5.4207393063    -4.2501194837     2.1063540100
   70      C       6.2390956228     0.6354575015     1.3301932913
   71      C       0.8861068064     0.1102541859    -0.0301221899
   72      C       6.4090895275    -1.4056141648    -2.1357798081
   73      C       2.3926677764    -1.3739105392    -2.8916317761
   74      C       5.4120135793    -2.1390280562     3.3496350912
   75      C       0.6317348136    -2.2262937819    -0.9082198401
   76      C       3.4446460594    -1.0980160116     3.6149046990
   77      C       1.2270568476    -4.0088650638     0.4612714161
   78      C       1.9186880772     1.0044752430    -0.3292519613
   79      C       0.8606167272    -0.8490841316    -1.0804860546
   80      C       4.9488088902     1.2991131017     1.4808299129
   81      C       6.5632437750    -0.4447628613     2.1742400573
   82      C       3.2394816137    -5.0069535594     1.4277495151
   83      C       0.8853961886    -0.4446068009     1.2489007890
   84      C       3.4795710048    -3.3868962318    -2.8788656685
   85      C       5.8607568218    -4.5482214970     0.8084215096
   86      C       3.0089686110    -4.9027791643    -1.0271966046
   87      C       5.6653467892    -0.7613475640     3.1873644964
   88      C       3.3950463026    -3.4962168628     3.1710054520
   89      O      -1.6805591010     4.1868783781     1.4558149943
   90      C      -0.4471480751     3.4573490573     1.1271704883
   91      H      -0.6798088723     2.5207099576     0.6055287047
   92      H       0.0821763668     3.3454468734     2.0818906234
   93      H       0.1298452977     4.0501921936     0.4064176434
   94      O      -0.4585350695     5.9213403669     2.3228218432
   95      C      -1.5454864881     5.4155165896     2.0818697319
   96      C      -2.9411821652     6.0169963688     2.5167969122
   97      H      -3.3885756774     6.4515876961     1.6143743818
   98      H      -2.6067424528     6.8382221316     3.1622644367
   99      C      -3.9718749958     4.9547128905     2.9751920482
  100      H      -3.4648261145     3.9909899577     3.1050247903
  101      H      -4.2720563676     5.1807919708     4.0055810007
  102      C      -5.2022831107     4.8265011550     2.0348242364
  103      H      -6.0169633032     4.3885268225     2.6229021802
  104      H      -5.6444357981     5.8185606170     1.8794665041
  105      C      -4.9723303513     4.1742227316     0.6765769884
  106      C      -4.7587118845     5.1350581277    -0.4524825726
  107      C      -5.8193591728     5.9283508043    -0.8191746221
  108      H      -6.7469905843     5.7388895144    -0.2872419347
  109      C      -5.5569550477     7.0466948602    -1.5986844988
  110      H      -6.3337998303     7.7493159209    -1.8870069377
  111      C      -4.2957336515     7.1735248792    -2.2322835331
  112      H      -4.2021902780     8.0167601959    -2.9111096065
  113      C      -3.2227266116     6.3449273565    -1.9613923415
  114      H      -2.2403291522     6.5159118811    -2.3906201646
  115      C      -3.4839094148     5.3262149829    -1.0561047391
  116      H      -2.6018056692     4.7980573218    -0.7057414031
  117      C      -7.0656905217     0.7329756728    -3.0920084064
  118      C      -4.6719113821     0.4377464810    -3.3982422312
  119      C      -4.4426825845    -3.6994515014    -1.4573895803
  120      C      -8.4009075663     0.0101098907     1.8201575623
  121      C      -3.2664212562    -2.4911323256     1.6568703731
  122      C      -5.7669601197     1.3053628382    -3.1349417960
  123      C      -6.6332146185    -1.7950267346     2.9300987349
  124      C      -6.0655137838    -2.8000003404    -3.0047846518
  125      C      -2.7143105142     1.1525157361     0.0946455074
  126      C      -7.3489005138     0.4967875180     2.5771807116
  127      C      -4.4235928723     2.7717908942     0.6149480951
  128      C      -3.0835950089     1.0277348824     1.4630685781
  129      C      -5.1408449357     0.1579448326     3.1023827665
  130      C      -5.5304419686    -2.6374540491     2.6739294505
  131      C      -4.0636496582     1.9375252102    -1.7940341902
  132      C      -5.0061745207    -3.9795571475     0.7290675231
  133      C      -5.8417960944     2.9796658118     0.2452892803
  134      C      -6.9158273671     2.3511962647     1.0604830325
  135      C      -3.6933766467    -3.4451429444     0.6966298647
  136      C      -8.5464328597    -2.5614633214    -0.5116551668
  137      C      -6.8013003580    -3.9261423289    -0.9441650026
  138      C      -7.0583918380    -3.2037278871    -2.1163707632
  139      C      -6.1126213286    -1.5076509697    -3.6033119974
  140      C      -7.8247341245     1.8019497152     0.2045637990
  141      C      -3.5794145906     2.1354690071    -0.4524840970
  142      C      -4.8507797394    -0.9272363302    -3.6471258102
  143      C      -6.4391766286    -0.4167772673     3.1720629149
  144      C      -3.6119797144     0.8529984530    -2.5784052599
  145      C      -2.9847667349    -0.2722051531     2.0560870233
  146      C      -9.1017810537    -0.2011943391    -0.3695259484
  147      C      -4.7321095531    -3.0167722133    -2.6422655313
  148      C      -4.1528788890     1.9347354530     1.7056071288
  149      C      -8.2506679783    -1.0974245631    -2.4844358563
  150      C      -4.0915037810    -0.7420848969     2.8196609472
  151      C      -2.2838972602     0.0307932107    -0.6470801877
  152      C      -7.2079111303    -3.3161406195     1.3685426301
  153      C      -7.7608938286    -2.2333093842     2.1605196823
  154      C      -2.2359985912    -1.2076697863    -0.0549272322
  155      C      -8.6033092404     0.7211716351     0.6268534276
  156      C      -6.5798263332     1.6024995069     2.2146742949
  157      C      -9.0520096885    -1.4926017706     0.2327453003
  158      C      -6.2788029503     2.6224149305    -1.1621679359
  159      C      -2.9010984905    -1.4537408984    -2.2068282828
  160      C      -5.2368595686     1.4349197632     2.5080653287
  161      C      -2.5456649352    -1.3663301031     1.3087148246
  162      C      -8.7284040730    -0.0350770731    -1.7347005469
  163      C      -3.3763791355    -3.2354090932    -0.6618403372
  164      C      -7.1675506271    -0.6600054577    -3.2903467259
  165      C      -5.4766626573    -4.1810792043    -0.5941190752
  166      C      -2.7069091760    -0.1280131180    -2.0059791792
  167      C      -2.6193433591    -2.1182804849    -1.0405559373
  168      C      -5.3861176075     2.2167313271    -2.1250197899
  169      C      -7.5219961087     2.0414715632    -1.1117241551
  170      C      -7.6936900035    -3.5182285474     0.0822866852
  171      C      -4.0038908692    -1.8585996098    -3.0476638157
  172      C      -4.2461033419    -2.0839845376     2.6355785469
  173      C      -8.6632097010    -1.3493262387     1.5750208651
  174      C      -5.9149198887    -3.6077213836     1.7359011841
  175      C      -7.8958483995     1.0789932250    -2.0582039030
  176      C      -8.1872116107    -2.3844304926    -1.8895366827
 ----------------------------------------------------------------

    9   -5804.2604611495      9.33E-06 Convergence criterion met
 Total energy in the final basis set = -5804.2604611495

                    Orbital Energies (a.u.)
 --------------------------------------------------------------

 Alpha MOs
 -- Occupied --
-19.210 -19.192 -19.139 -19.133 -10.320 -10.319 -10.252 -10.242
-10.242 -10.240 -10.239 -10.239 -10.238 -10.234 -10.233 -10.229
-10.229 -10.229 -10.228 -10.226 -10.226 -10.226 -10.226 -10.226
-10.225 -10.224 -10.223 -10.222 -10.222 -10.222 -10.222 -10.222
-10.222 -10.221 -10.221 -10.221 -10.221 -10.221 -10.221 -10.221
-10.220 -10.220 -10.219 -10.219 -10.219 -10.219 -10.219 -10.219
-10.218 -10.218 -10.218 -10.218 -10.218 -10.217 -10.217 -10.217
-10.217 -10.217 -10.217 -10.217 -10.217 -10.216 -10.216 -10.216
-10.216 -10.216 -10.216 -10.216 -10.216 -10.215 -10.215 -10.215
-10.215 -10.215 -10.215 -10.215 -10.215 -10.215 -10.215 -10.215
-10.215 -10.215 -10.214 -10.214 -10.214 -10.214 -10.214 -10.214
-10.214 -10.214 -10.213 -10.213 -10.213 -10.213 -10.213 -10.213
-10.213 -10.212 -10.212 -10.212 -10.212 -10.212 -10.212 -10.211
-10.211 -10.211 -10.211 -10.211 -10.211 -10.210 -10.210 -10.210
-10.210 -10.210 -10.210 -10.210 -10.210 -10.210 -10.209 -10.209
-10.209 -10.209 -10.208 -10.208 -10.208 -10.208 -10.207 -10.207
-10.207 -10.207 -10.207 -10.207 -10.207 -10.206 -10.205 -10.203
-10.201 -10.201 -10.200 -10.199 -10.199 -10.198 -10.197 -10.197
-10.196 -10.196 -10.196 -10.194  -1.110  -1.084  -1.005  -1.002
 -0.985  -0.983  -0.970  -0.967  -0.963  -0.962  -0.961  -0.960
 -0.935  -0.935  -0.932  -0.928  -0.925  -0.924  -0.923  -0.921
 -0.920  -0.920  -0.900  -0.895  -0.892  -0.889  -0.886  -0.886
 -0.879  -0.876  -0.862  -0.857  -0.842  -0.842  -0.841  -0.839
 -0.838  -0.836  -0.821  -0.818  -0.806  -0.803  -0.801  -0.797
 -0.797  -0.796  -0.795  -0.793  -0.791  -0.790  -0.787  -0.783
 -0.777  -0.770  -0.770  -0.770  -0.767  -0.767  -0.764  -0.763
 -0.756  -0.752  -0.750  -0.739  -0.734  -0.731  -0.720  -0.717
 -0.715  -0.714  -0.714  -0.713  -0.712  -0.711  -0.711  -0.708
 -0.707  -0.706  -0.706  -0.705  -0.705  -0.701  -0.674  -0.673
 -0.661  -0.659  -0.658  -0.657  -0.649  -0.646  -0.633  -0.632
 -0.630  -0.628  -0.628  -0.625  -0.624  -0.624  -0.622  -0.618
 -0.614  -0.613  -0.613  -0.613  -0.612  -0.612  -0.610  -0.610
 -0.608  -0.607  -0.604  -0.602  -0.577  -0.566  -0.566  -0.563
 -0.563  -0.560  -0.559  -0.559  -0.558  -0.555  -0.554  -0.554
 -0.539  -0.535  -0.534  -0.534  -0.531  -0.529  -0.527  -0.524
 -0.524  -0.523  -0.522  -0.519  -0.519  -0.518  -0.516  -0.514
 -0.509  -0.507  -0.505  -0.498  -0.491  -0.490  -0.490  -0.489
 -0.487  -0.485  -0.483  -0.483  -0.481  -0.479  -0.478  -0.477
 -0.473  -0.472  -0.471  -0.470  -0.468  -0.468  -0.466  -0.466
 -0.466  -0.464  -0.464  -0.462  -0.462  -0.462  -0.459  -0.458
 -0.456  -0.455  -0.453  -0.452  -0.450  -0.447  -0.446  -0.443
 -0.443  -0.440  -0.440  -0.439  -0.438  -0.438  -0.434  -0.433
 -0.432  -0.432  -0.430  -0.428  -0.428  -0.428  -0.426  -0.425
 -0.424  -0.424  -0.422  -0.422  -0.421  -0.420  -0.420  -0.419
 -0.418  -0.418  -0.418  -0.416  -0.415  -0.415  -0.414  -0.413
 -0.411  -0.410  -0.408  -0.407  -0.403  -0.401  -0.398  -0.396
 -0.396  -0.394  -0.393  -0.392  -0.391  -0.390  -0.387  -0.385
 -0.383  -0.382  -0.376  -0.375  -0.373  -0.371  -0.369  -0.368
 -0.366  -0.365  -0.363  -0.362  -0.361  -0.360  -0.360  -0.357
 -0.356  -0.356  -0.356  -0.355  -0.355  -0.354  -0.352  -0.352
 -0.351  -0.351  -0.349  -0.349  -0.347  -0.346  -0.346  -0.344
 -0.344  -0.343  -0.342  -0.341  -0.340  -0.338  -0.338  -0.336
 -0.334  -0.333  -0.331  -0.330  -0.329  -0.326  -0.325  -0.323
 -0.310  -0.308  -0.304  -0.299  -0.288  -0.286  -0.274  -0.271
 -0.270  -0.269  -0.269  -0.267  -0.267  -0.266  -0.265  -0.263
 -0.262  -0.261  -0.260  -0.260  -0.259  -0.258  -0.257  -0.256
 -0.252  -0.247  -0.242  -0.240  -0.225  -0.222  -0.216  -0.212
 -0.210  -0.209  -0.208  -0.205  -0.199  -0.196

          Ground-State Mulliken Net Atomic Charges

     Atom                 Charge (a.u.)
  ----------------------------------------
      1 O                    -0.424400
      2 C                    -0.093651
      3 H                     0.133501
      4 H                     0.133704
      5 H                     0.136807
      6 O                    -0.492849
      7 C                     0.583247
      8 C                    -0.261371
      9 H                     0.126521
     10 H                     0.120863
     11 C                    -0.182718
     12 H                     0.120214
     13 H                     0.107490
     14 C                    -0.178056
     15 H                     0.128509
     16 H                     0.106861
     17 C                    -0.009980
     18 C                     0.094840
     19 C                    -0.087759
     20 H                     0.090351
     21 C                    -0.108568
     22 H                     0.083985
     23 C                    -0.069638
     24 H                     0.094397
     25 C                    -0.106124
     26 H                     0.084658
     27 C                    -0.083942
     28 H                     0.092455
     29 C                    -0.006391
     30 C                    -0.031823
     31 C                     0.009255
     32 C                     0.005439
     33 C                    -0.027436
     34 C                     0.007484
     35 C                     0.014301
     36 C                    -0.032449
     37 C                     0.020855
     38 C                    -0.025053
     39 C                    -0.098011
     40 C                    -0.010268
     41 C                     0.000562
     42 C                    -0.010148
     43 C                     0.008879
     44 C                     0.023502
     45 C                    -0.073988
     46 C                    -0.000496
     47 C                    -0.015781
     48 C                    -0.000562
     49 C                    -0.023709
     50 C                     0.033769
     51 C                     0.019139
     52 C                     0.002905
     53 C                     0.010408
     54 C                     0.014489
     55 C                    -0.003928
     56 C                    -0.004621
     57 C                    -0.028312
     58 C                    -0.008999
     59 C                     0.017949
     60 C                     0.049014
     61 C                    -0.013537
     62 C                    -0.004373
     63 C                     0.005409
     64 C                     0.002040
     65 C                     0.015457
     66 C                    -0.001995
     67 C                    -0.010820
     68 C                     0.009664
     69 C                    -0.004403
     70 C                     0.021081
     71 C                    -0.032675
     72 C                    -0.000883
     73 C                    -0.006480
     74 C                     0.011458
     75 C                     0.012466
     76 C                     0.016570
     77 C                    -0.036339
     78 C                    -0.006311
     79 C                     0.022796
     80 C                    -0.005372
     81 C                     0.037243
     82 C                     0.014743
     83 C                     0.000567
     84 C                     0.021880
     85 C                     0.006246
     86 C                    -0.006810
     87 C                    -0.027956
     88 C                    -0.007372
     89 O                    -0.481802
     90 C                    -0.088493
     91 H                     0.128872
     92 H                     0.135030
     93 H                     0.127325
     94 O                    -0.467646
     95 C                     0.584569
     96 C                    -0.262890
     97 H                     0.146336
     98 H                     0.136722
     99 C                    -0.184216
    100 H                     0.130324
    101 H                     0.106606
    102 C                    -0.225141
    103 H                     0.112564
    104 H                     0.112786
    105 C                     0.043443
    106 C                     0.082696
    107 C                    -0.102592
    108 H                     0.089154
    109 C                    -0.095008
    110 H                     0.090273
    111 C                    -0.088164
    112 H                     0.082702
    113 C                    -0.075749
    114 H                     0.098473
    115 C                    -0.123342
    116 H                     0.102075
    117 C                    -0.013907
    118 C                     0.016951
    119 C                     0.002977
    120 C                     0.008900
    121 C                    -0.025651
    122 C                    -0.039547
    123 C                     0.014199
    124 C                    -0.012269
    125 C                    -0.035740
    126 C                     0.002321
    127 C                    -0.044407
    128 C                     0.003143
    129 C                    -0.019729
    130 C                    -0.010605
    131 C                     0.000918
    132 C                     0.003792
    133 C                    -0.102147
    134 C                     0.000211
    135 C                     0.006820
    136 C                     0.001307
    137 C                    -0.015261
    138 C                     0.034900
    139 C                    -0.012243
    140 C                     0.027168
    141 C                     0.023934
    142 C                     0.015215
    143 C                    -0.035950
    144 C                    -0.010608
    145 C                    -0.031311
    146 C                    -0.034286
    147 C                    -0.002785
    148 C                     0.035323
    149 C                    -0.008314
    150 C                     0.013666
    151 C                    -0.003732
    152 C                     0.010230
    153 C                    -0.007188
    154 C                     0.009763
    155 C                     0.000789
    156 C                     0.002907
    157 C                     0.004218
    158 C                     0.054903
    159 C                     0.000743
    160 C                     0.013586
    161 C                     0.023943
    162 C                    -0.000982
    163 C                    -0.019521
    164 C                     0.021649
    165 C                    -0.007574
    166 C                    -0.024477
    167 C                     0.023528
    168 C                     0.016149
    169 C                     0.015859
    170 C                    -0.002710
    171 C                    -0.005844
    172 C                     0.012237
    173 C                    -0.003124
    174 C                     0.001048
    175 C                    -0.001859
    176 C                    -0.014058
  ----------------------------------------
  Sum of atomic charges =     0.000000

                    Cartesian Multipole Moments
 -----------------------------------------------------------------
    Charge (ESU x 10^10)
                 0.0000
    Dipole Moment (Debye)
         X      -0.4047      Y       3.9644      Z      -1.1498
       Tot       4.1476
    Quadrupole Moments (Debye-Ang)
        XX    -831.9527     XY      -3.2361     YY    -783.2696
        XZ     -14.3770     YZ      -7.5658     ZZ    -807.9421

 Total job time:  890.58s(wall), 8499.47s(cpu)
        *  Thank you very much for using Q-Chem.  Have a nice day.  *
