 Q-Chem 4.4, Q-Chem, Inc., Pleasanton, CA (2016)
 Q-Chem 4.4.2 for Intel X86 Linux

User input:
--------------------------------------------------------------
$comment
SP
$end

$rem
MEM_STATIC 5000
MEM_TOTAL 20000
JOBTYPE SP
EXCHANGE B3LYP
BASIS 6-31g(d,p)
$end

$molecule
0 1
O          11.923000     -6.045000      9.159000
C          10.729000     -5.553000      8.449000
H          11.088000     -4.767000      7.774000
H           9.946000     -5.157000      9.107000
H          10.262000     -6.381000      7.900000
O          11.410000     -8.241000      9.164000
C          12.195000     -7.367000      9.403000
C          13.537000     -7.694000     10.061000
H          13.585000     -8.764000     10.297000
H          13.476000     -7.188000     11.032000
C          14.700000     -7.216000      9.276000
H          14.687000     -7.787000      8.340000
H          14.632000     -6.163000      8.974000
C          16.053000     -7.393000      9.862000
H          16.206000     -6.595000     10.599000
H          16.107000     -8.304000     10.469000
C          17.151000     -7.322000      8.690000
C          17.423000     -8.669000      8.061000
C          18.260000     -9.568000      8.738000
H          18.487000     -9.461000      9.795000
C          18.805000    -10.713000      8.080000
H          19.472000    -11.384000      8.612000
C          18.567000    -10.840000      6.732000
H          19.062000    -11.612000      6.150000
C          17.640000     -9.977000      6.040000
H          17.450000    -10.184000      4.991000
C          17.115000     -8.914000      6.768000
H          16.421000     -8.207000      6.323000
C          22.174000     -5.810000      7.861000
C          21.228000     -5.398000      5.695000
C          21.206000     -0.900000      5.852000
C          19.625000     -3.418000     11.566000
C          17.766000     -0.636000      6.842000
C          21.316000     -6.149000      6.845000
C          18.446000     -1.060000     10.351000
C          22.832000     -2.501000      6.572000
C          17.321000     -4.572000      6.025000
C          18.286000     -3.369000     11.105000
C          17.305000     -5.999000      7.935000
C          16.628000     -3.908000      7.037000
C          16.831000     -2.584000      9.572000
C          18.358000     -0.340000      9.164000
C          19.152000     -6.098000      6.232000
C          20.007000      0.099000      7.437000
C          18.257000     -6.396000      8.941000
C          18.475000     -5.639000     10.200000
C          19.102000     -0.232000      6.430000
C          22.405000     -1.889000      9.974000
C          22.216000     -0.735000      8.089000
C          23.017000     -1.833000      7.799000
C          22.803000     -3.879000      6.519000
C          19.868000     -5.642000     10.556000
C          17.803000     -5.761000      6.540000
C          22.001000     -4.283000      5.477000
C          17.725000     -2.241000     10.532000
C          19.877000     -5.375000      5.301000
C          16.688000     -2.513000      7.155000
C          21.701000     -4.028000     10.951000
C          21.982000     -2.023000      5.551000
C          16.551000     -4.729000      8.231000
C          23.173000     -3.962000      8.926000
C          16.687000     -1.871000      8.421000
C          18.033000     -3.812000      5.130000
C          20.489000     -0.413000      9.764000
C          19.773000     -1.140000     10.697000
C          18.001000     -2.412000      5.204000
C          20.416000     -4.515000     11.248000
C          17.689000     -4.479000     10.429000
C          21.690000     -2.631000     10.928000
C          19.684000     -6.734000      8.503000
C          20.068000     -3.038000      4.536000
C          16.833000     -3.996000      9.448000
C          17.243000     -1.765000      6.196000
C          22.429000     -4.668000      9.880000
C          19.839000     -0.912000      5.479000
C          22.949000     -4.622000      7.689000
C          21.321000     -0.274000      7.089000
C          19.315000     -4.191000      4.728000
C          19.249000     -1.961000      4.849000
C          20.047000     -6.580000      7.143000
C          20.575000     -6.244000      9.526000
C          21.760000     -0.814000      9.378000
C          21.412000     -3.122000      4.938000
C          17.389000     -0.681000      8.210000
C          20.399000     -2.256000     11.313000
C          19.591000      0.132000      8.768000
C          21.810000     -5.780000      9.183000
C          23.170000     -2.572000      8.965000
O          21.234000      3.676000     -0.627000
C          20.139000      4.629000     -0.860000
H          19.172000      4.111000     -0.871000
H          20.405000      5.149000     -1.789000
H          20.085000      5.317000     -0.007000
O          22.759000      5.387000     -0.611000
C          22.518000      4.190000     -0.544000
C          23.609000      3.050000     -0.449000
H          23.609000      2.704000      0.592000
H          24.520000      3.638000     -0.614000
C          23.269000      1.780000     -1.269000
H          22.421000      1.993000     -1.931000
H          24.072000      1.608000     -1.996000
C          23.006000      0.521000     -0.397000
H          23.180000     -0.356000     -1.031000
H          23.846000      0.377000      0.294000
C          21.706000      0.487000      0.398000
C          21.834000      0.914000      1.828000
C          22.570000      0.111000      2.666000
H          22.946000     -0.805000      2.220000
C          22.995000      0.647000      3.874000
H          23.622000      0.093000      4.567000
C          22.425000      1.859000      4.337000
H          22.726000      2.159000      5.337000
C          21.607000      2.659000      3.561000
H          21.255000      3.627000      3.904000
C          21.328000      2.159000      2.297000
H          20.846000      2.867000      1.629000
C          17.519000     -2.690000      2.072000
C          16.473000     -0.501000      1.913000
C          14.083000     -1.382000     -1.888000
C          19.866000     -3.938000     -2.329000
C          16.371000      0.242000     -4.049000
C          17.608000     -1.285000      2.257000
C          18.510000     -2.715000     -4.398000
C          14.439000     -2.749000      0.072000
C          18.349000      1.746000     -0.911000
C          20.371000     -2.755000     -2.841000
C          20.392000      0.604000     -0.331000
C          19.064000      1.423000     -2.098000
C          19.775000     -0.716000     -3.709000
C          17.397000     -1.916000     -4.736000
C          18.360000      0.591000      1.250000
C          15.153000     -1.896000     -3.829000
C          20.750000     -0.710000      0.249000
C          20.959000     -1.879000     -0.647000
C          15.213000     -0.488000     -3.674000
C          16.607000     -4.932000     -1.649000
C          14.806000     -3.678000     -2.177000
C          14.846000     -3.772000     -0.780000
C          15.183000     -2.450000      1.250000
C          20.313000     -2.948000     -0.099000
C          19.091000      1.176000      0.156000
C          15.288000     -1.078000      1.444000
C          19.698000     -2.120000     -3.918000
C          16.951000      0.672000      1.310000
C          18.297000      1.171000     -3.281000
C          18.739000     -4.775000     -0.496000
C          14.093000     -1.519000     -0.497000
C          20.213000      0.674000     -1.719000
C          16.678000     -4.322000      0.748000
C          18.616000      0.014000     -4.048000
C          16.938000      1.798000     -0.904000
C          16.619000     -3.779000     -3.786000
C          18.058000     -3.957000     -3.842000
C          16.234000      1.515000     -2.049000
C          19.871000     -3.984000     -0.926000
C          20.867000     -1.718000     -2.051000
C          17.997000     -5.071000     -1.677000
C          19.843000     -1.299000      1.312000
C          15.089000      0.704000     -0.270000
C          20.522000     -0.468000     -2.537000
C          16.903000      1.239000     -3.256000
C          18.058000     -4.436000      0.709000
C          14.586000     -0.190000     -2.446000
C          16.317000     -3.199000      1.537000
C          14.425000     -2.468000     -2.754000
C          16.213000      1.282000      0.218000
C          15.086000      0.838000     -1.635000
C          18.770000     -0.609000      1.823000
C          19.736000     -2.653000      1.110000
C          15.914000     -4.364000     -2.741000
C          14.620000     -0.508000      0.361000
C          17.477000     -0.530000     -4.563000
C          18.710000     -4.593000     -2.789000
C          16.226000     -2.609000     -4.393000
C          18.564000     -3.334000      1.463000
C          15.932000     -4.604000     -0.426000
$end

--------------------------------------------------------------

             Standard Nuclear Orientation (Angstroms)
    I     Atom           X                Y                Z
 ----------------------------------------------------------------
    1      O       6.5014209096    -5.6882760490     3.6669837418
    2      C       5.6620453174    -6.4904308537     4.5746159827
    3      H       4.7218001808    -5.9357012627     4.6771643323
    4      H       6.1069797731    -6.6650585527     5.5617367944
    5      H       5.5033490508    -7.4868693591     4.1421812478
    6      O       7.4079471294    -7.3833673117     2.4877951123
    7      C       7.2623567669    -6.2044017416     2.6492436520
    8      C       7.9856191442    -5.2064167063     1.7427259176
    9      H       8.6380477530    -5.7435312352     1.0436229972
   10      H       8.6653536272    -4.6848768821     2.4272368703
   11      C       7.0643817807    -4.2586869298     1.0716014948
   12      H       6.4437624878    -4.8652434848     0.4013576296
   13      H       6.3588359351    -3.7648742292     1.7520359710
   14      C       7.6605246237    -3.1826820221     0.2396392665
   15      H       8.0055997855    -2.3896189903     0.9144400967
   16      H       8.5864647058    -3.5188792770    -0.2408733453
   17      C       6.5530443419    -2.6326405817    -0.7875758226
   18      C       6.5275246799    -3.4027216751    -2.0877134524
   19      C       7.5060797281    -3.1216860044    -3.0523625956
   20      H       8.4250808194    -2.5971449697    -2.8063530486
   21      C       7.3692940254    -3.5732441596    -4.4008428157
   22      H       8.1236927330    -3.3242684128    -5.1404695239
   23      C       6.1930001481    -4.1976943874    -4.7418290724
   24      H       5.9734814147    -4.4437832613    -5.7767130233
   25      C       5.2162054245    -4.5722223144    -3.7475640676
   26      H       4.3450877098    -5.1262723690    -4.0845098559
   27      C       5.4502331119    -4.1352933974    -2.4476016978
   28      H       4.7607295641    -4.3593584040    -1.6389672128
   29      C       5.1375714534     1.8325834910    -3.2899995441
   30      C       3.0001818769     0.7711998989    -3.0425189011
   31      C       1.3047042280     3.4794119886     0.1273517302
   32      C       7.5614284222     2.3496135822     1.1601338561
   33      C       2.1281578090     1.3118214395     2.8672187729
   34      C       4.3559597747     0.7047450441    -3.2698843428
   35      C       5.4981994191     2.5330545909     3.1938165937
   36      C       2.6030927166     3.9491100154    -1.8268867651
   37      C       2.9953658679    -1.5944697290     0.1915820586
   38      C       7.1315741278     1.2420854017     1.9324353613
   39      C       5.3219150110    -1.9343520527    -0.2038090020
   40      C       3.6530530610    -1.4444538720     1.4123325650
   41      C       5.4234825357     0.1922961875     2.9637959766
   42      C       4.1213301348     2.5708948940     3.3885268543
   43      C       3.7932769615    -1.0658189427    -2.0011222609
   44      C       2.3524463027     3.6042001259     2.0855374890
   45      C       6.3945385358    -1.1771347223    -0.7971467546
   46      C       7.2322111194    -0.2165261229    -0.0347887277
   47      C       1.5761588311     2.4481261982     2.1447475806
   48      C       5.4609286701     4.9233088308    -0.0907452584
   49      C       3.2704701457     4.9525587625     0.2581069949
   50      C       3.4482170971     4.8229878154    -1.1140891977
   51      C       3.1183335767     3.0911123300    -2.7760447223
   52      C       7.5470003601     0.9304292058    -0.8426223789
   53      C       3.9475287484    -1.7986089095    -0.7897349360
   54      C       2.3391143283     1.9596615233    -2.8454740749
   55      C       6.1520624125     1.3343535998     2.9058198584
   56      C       2.6421970954    -0.3425399393    -2.2599612552
   57      C       3.1899275278    -0.5351267603     2.3726387372
   58      C       7.2327237090     3.3842180340    -0.8100559418
   59      C       1.4828367353     3.3130564394    -1.2490568723
   60      C       5.0789425307    -1.6651175699     1.2582132848
   61      C       5.3458252605     3.9799535055    -2.3451385106
   62      C       4.0827825200     0.1935588381     3.2013414955
   63      C       1.8621173977    -0.8490834170    -0.0222312960
   64      C       4.6814118312     4.2998779065     2.1222661244
   65      C       5.8358790814     3.5815537242     2.3730443883
   66      C       1.3575416632    -0.0182535900     0.9885234352
   67      C       7.7132957084     2.2054249955    -0.2133143515
   68      C       6.9733277455    -0.0553724058     1.3518784560
   69      C       6.6406843276     4.2025462719     0.1553907247
   70      C       6.1214275957    -0.4216736702    -2.0998769697
   71      C       0.9870849942     0.9855064158    -1.0029124053
   72      C       5.8875792542    -0.6820198771     1.9492469857
   73      C       2.0044554522     0.0670960474     2.2340975956
   74      C       6.5110984586     3.2587695096    -2.0551039994
   75      C       0.9803225776     2.3384797820     0.9026015253
   76      C       4.4886212253     3.0786749372    -3.0298597562
   77      C       2.1766938280     4.2781593140     0.8600910069
   78      C       1.6397988603    -0.2176377630    -1.2472291956
   79      C       0.8390589028     1.0952704592     0.3735682996
   80      C       4.8144197613    -0.4283107179    -2.6446443240
   81      C       6.8474255106     0.8230159449    -2.0351870192
   82      C       4.4827781242     4.9142863757     0.8941436210
   83      C       1.3773660172     2.0597843519    -1.8205942745
   84      C       3.3980171458     1.3750722722     3.4989106258
   85      C       6.8491975471     3.5572686050     1.3783665912
   86      C       3.5569682086     3.6743927154     2.7854703277
   87      C       6.3346843801     1.9377660654    -2.6289872397
   88      C       4.8131622710     4.8171227481    -1.3709476674
   89      O      -6.4789037443     4.4547567399     1.3030007209
   90      C      -7.0722579442     4.1327897225     2.6090600737
   91      H      -6.8626672958     3.0911620018     2.8822220247
   92      H      -8.1347918065     4.3891867450     2.5116980780
   93      H      -6.5746715257     4.7358139722     3.3788902565
   94      O      -7.1762009693     6.6301597220     1.4895494962
   95      C      -6.6237283210     5.7529469336     0.8409735972
   96      C      -6.0798249778     5.9226130659    -0.6335733016
   97      H      -4.9883801736     6.0013713411    -0.5564865098
   98      H      -6.4781919929     6.9155215042    -0.8750822134
   99      C      -6.3061558627     4.6842796609    -1.5370137858
  100      H      -6.9904736201     3.9900389500    -1.0345637462
  101      H      -6.9057988605     4.9886615032    -2.4034443770
  102      C      -4.9935355334     3.9739276275    -1.9695202711
  103      H      -5.2149736057     3.4087454649    -2.8821512498
  104      H      -4.3108976520     4.7112114725    -2.4102413334
  105      C      -4.2435815886     3.1902699713    -0.8987118109
  106      C      -3.1142132111     3.9330274477    -0.2533813536
  107      C      -2.0271615713     4.2391645699    -1.0365465946
  108      H      -2.0627319621     3.8546531322    -2.0515508811
  109      C      -1.1473593070     5.2102598267    -0.5781723172
  110      H      -0.2935449117     5.5428929369    -1.1618247757
  111      C      -1.2157141292     5.6295022560     0.7737804940
  112      H      -0.4282354458     6.3093527796     1.0872794392
  113      C      -2.2442937710     5.2766703041     1.6274979732
  114      H      -2.3241726390     5.6820936508     2.6314044810
  115      C      -3.1911038576     4.4218874785     1.0812068596
  116      H      -4.0862418105     4.2973466604     1.6837262617
  117      C      -1.3830672571    -1.4053794809     0.1614947120
  118      C      -2.4146064427    -0.9331690626     2.3118579905
  119      C      -5.5037046782    -4.3029281782     2.1167744338
  120      C      -4.9081393914    -1.5833540304    -3.5770752696
  121      C      -8.1583018714    -2.1996982683     1.0815069863
  122      C      -1.7893742438    -0.4498582231     1.1300321446
  123      C      -7.2852430144    -2.4440539907    -2.4708203513
  124      C      -3.1590780609    -4.3126066137     1.5339731355
  125      C      -5.9255964353     1.0490371924     1.7759768144
  126      C      -5.8631275057    -0.6371066337    -3.2465127705
  127      C      -4.9460091558     2.0687667652    -0.1772188645
  128      C      -6.8825746123     1.0710177503     0.7232505330
  129      C      -7.4840107959    -0.1088687699    -1.7103281726
  130      C      -7.9113109414    -2.9001756402    -1.2912416165
  131      C      -3.4814132621     0.9604347747     1.6270297512
  132      C      -7.0735590571    -4.3333817033     0.4702001683
  133      C      -3.8824178419     1.7143183217    -1.1438107214
  134      C      -4.2238551259     0.9297094943    -2.3607197440
  135      C      -7.5082342120    -3.4061721070     1.4507249635
  136      C      -3.8547417116    -4.4492866089    -1.9192752865
  137      C      -4.8346298815    -5.2053686259    -0.0316682941
  138      C      -3.5216597910    -4.8486925021     0.3014032960
  139      C      -2.2123503656    -3.2502903919     1.6102090580
  140      C      -3.2814761918    -0.0451195790    -2.5090815396
  141      C      -4.7248723397     1.5613290731     1.2194054576
  142      C      -2.5970826536    -2.2999053621     2.5481825980
  143      C      -7.1001118555    -1.0613095179    -2.6933359169
  144      C      -3.4483311016    -0.0381782767     2.6255884846
  145      C      -7.8528935235     0.0179974981     0.6930584969
  146      C      -2.8840467594    -2.4309913946    -2.8593379109
  147      C      -4.1783865666    -3.9961729698     2.4379957675
  148      C      -6.2398252062     1.5953458423    -0.4329485212
  149      C      -1.9172686088    -3.3756468926    -0.8164399699
  150      C      -8.0824082368    -0.6411188795    -0.5485483641
  151      C      -5.9290082539     0.0171114817     2.7397152058
  152      C      -6.2763922591    -4.3379473067    -1.7795105357
  153      C      -6.2664109835    -3.3734326238    -2.8635551845
  154      C      -6.8524872232    -0.9964418853     2.6583139439
  155      C      -3.6090335869    -1.2228297278    -3.1860556589
  156      C      -5.5701827118     0.5718206366    -2.6155110250
  157      C      -3.8347549158    -3.4908310657    -2.9357242521
  158      C      -2.6641838105     0.9697277490    -0.6329000407
  159      C      -4.8881570076    -1.8569481050     3.3894246398
  160      C      -6.5219324270     0.9236609995    -1.6731194723
  161      C      -7.8465584180    -0.9866302638     1.6621652642
  162      C      -1.9174597242    -2.4128445310    -1.8123960813
  163      C      -6.5043344093    -3.3654200755     2.4408974020
  164      C      -1.6534358644    -2.7624743785     0.4359109198
  165      C      -5.8527780611    -4.9294637262     0.8790680952
  166      C      -4.6882553268    -0.5304480601     3.1995801013
  167      C      -6.1885785699    -2.1530898015     3.0694342401
  168      C      -2.4712392283     0.7112824032     0.7029623742
  169      C      -2.2940948563     0.0263748316    -1.5595544743
  170      C      -5.0778604247    -4.9326375130    -1.4038244962
  171      C      -3.8130089125    -2.7607325122     3.0513472536
  172      C      -8.3207278872    -1.9660606565    -0.3335715472
  173      C      -5.0507490037    -2.9722459523    -3.4109345827
  174      C      -7.3054668589    -4.1031623114    -0.8976491667
  175      C      -1.6840229156    -1.1674735470    -1.1539780008
  176      C      -2.8672799275    -4.4282413206    -0.8784033824
 ----------------------------------------------------------------

    9   -5804.2405939021      8.83E-06 Convergence criterion met
 Total energy in the final basis set = -5804.2405939021

                    Orbital Energies (a.u.)
 --------------------------------------------------------------

 Alpha MOs
 -- Occupied --
-19.195 -19.183 -19.141 -19.126 -10.322 -10.311 -10.248 -10.247
-10.240 -10.240 -10.236 -10.235 -10.234 -10.231 -10.230 -10.230
-10.228 -10.228 -10.228 -10.228 -10.226 -10.226 -10.225 -10.224
-10.224 -10.223 -10.221 -10.221 -10.221 -10.221 -10.221 -10.220
-10.220 -10.220 -10.220 -10.219 -10.219 -10.219 -10.219 -10.219
-10.219 -10.219 -10.219 -10.219 -10.218 -10.218 -10.218 -10.218
-10.218 -10.217 -10.217 -10.217 -10.217 -10.217 -10.217 -10.217
-10.217 -10.217 -10.217 -10.217 -10.217 -10.216 -10.216 -10.216
-10.216 -10.216 -10.216 -10.216 -10.216 -10.215 -10.215 -10.215
-10.215 -10.215 -10.215 -10.214 -10.214 -10.214 -10.214 -10.214
-10.214 -10.214 -10.214 -10.214 -10.214 -10.214 -10.214 -10.213
-10.213 -10.213 -10.213 -10.213 -10.213 -10.213 -10.213 -10.212
-10.212 -10.212 -10.212 -10.212 -10.212 -10.211 -10.211 -10.211
-10.211 -10.211 -10.211 -10.211 -10.210 -10.210 -10.210 -10.210
-10.210 -10.210 -10.209 -10.209 -10.209 -10.209 -10.209 -10.209
-10.209 -10.209 -10.208 -10.208 -10.208 -10.207 -10.207 -10.207
-10.207 -10.206 -10.205 -10.205 -10.205 -10.205 -10.203 -10.202
-10.201 -10.200 -10.199 -10.199 -10.198 -10.198 -10.197 -10.197
-10.196 -10.195 -10.193 -10.184  -1.086  -1.084  -1.007  -1.004
 -0.989  -0.985  -0.971  -0.969  -0.969  -0.966  -0.963  -0.962
 -0.942  -0.937  -0.933  -0.930  -0.928  -0.927  -0.925  -0.925
 -0.923  -0.922  -0.904  -0.897  -0.896  -0.892  -0.888  -0.886
 -0.878  -0.877  -0.859  -0.858  -0.846  -0.844  -0.842  -0.841
 -0.840  -0.838  -0.823  -0.823  -0.813  -0.805  -0.801  -0.800
 -0.799  -0.797  -0.797  -0.795  -0.795  -0.792  -0.786  -0.785
 -0.775  -0.772  -0.772  -0.772  -0.769  -0.768  -0.766  -0.765
 -0.753  -0.750  -0.741  -0.740  -0.734  -0.734  -0.718  -0.717
 -0.716  -0.716  -0.716  -0.714  -0.714  -0.713  -0.713  -0.710
 -0.709  -0.708  -0.707  -0.706  -0.704  -0.703  -0.676  -0.676
 -0.662  -0.661  -0.661  -0.660  -0.651  -0.648  -0.633  -0.632
 -0.630  -0.629  -0.627  -0.626  -0.625  -0.621  -0.618  -0.618
 -0.616  -0.616  -0.615  -0.615  -0.614  -0.614  -0.611  -0.610
 -0.609  -0.608  -0.605  -0.601  -0.568  -0.567  -0.566  -0.565
 -0.562  -0.562  -0.561  -0.560  -0.560  -0.557  -0.556  -0.556
 -0.539  -0.537  -0.536  -0.532  -0.532  -0.531  -0.526  -0.526
 -0.525  -0.523  -0.521  -0.520  -0.520  -0.519  -0.517  -0.516
 -0.509  -0.508  -0.499  -0.497  -0.493  -0.492  -0.489  -0.488
 -0.485  -0.485  -0.484  -0.483  -0.482  -0.481  -0.476  -0.475
 -0.474  -0.471  -0.471  -0.471  -0.470  -0.469  -0.468  -0.467
 -0.466  -0.466  -0.464  -0.464  -0.463  -0.462  -0.460  -0.459
 -0.458  -0.455  -0.455  -0.453  -0.449  -0.448  -0.446  -0.445
 -0.443  -0.442  -0.442  -0.441  -0.441  -0.440  -0.436  -0.435
 -0.434  -0.433  -0.431  -0.429  -0.428  -0.427  -0.426  -0.426
 -0.425  -0.424  -0.424  -0.423  -0.422  -0.421  -0.421  -0.420
 -0.420  -0.419  -0.418  -0.417  -0.416  -0.415  -0.415  -0.414
 -0.414  -0.414  -0.413  -0.409  -0.403  -0.398  -0.398  -0.397
 -0.396  -0.394  -0.394  -0.391  -0.389  -0.389  -0.387  -0.384
 -0.384  -0.382  -0.378  -0.376  -0.372  -0.371  -0.370  -0.368
 -0.366  -0.366  -0.363  -0.362  -0.362  -0.361  -0.359  -0.359
 -0.358  -0.357  -0.357  -0.355  -0.354  -0.353  -0.353  -0.353
 -0.352  -0.351  -0.350  -0.348  -0.348  -0.346  -0.344  -0.343
 -0.343  -0.342  -0.342  -0.341  -0.341  -0.338  -0.338  -0.335
 -0.334  -0.334  -0.332  -0.331  -0.329  -0.328  -0.327  -0.320
 -0.312  -0.309  -0.301  -0.294  -0.292  -0.290  -0.275  -0.273
 -0.272  -0.271  -0.270  -0.269  -0.268  -0.267  -0.266  -0.264
 -0.263  -0.262  -0.261  -0.261  -0.259  -0.258  -0.257  -0.255
 -0.248  -0.246  -0.245  -0.239  -0.226  -0.222  -0.216  -0.213
 -0.211  -0.210  -0.208  -0.205  -0.199  -0.198

          Ground-State Mulliken Net Atomic Charges

     Atom                 Charge (a.u.)
  ----------------------------------------
      1 O                    -0.487632
      2 C                    -0.087293
      3 H                     0.130625
      4 H                     0.127878
      5 H                     0.140110
      6 O                    -0.454370
      7 C                     0.577549
      8 C                    -0.240897
      9 H                     0.133114
     10 H                     0.120667
     11 C                    -0.178577
     12 H                     0.104540
     13 H                     0.125129
     14 C                    -0.191914
     15 H                     0.105518
     16 H                     0.103322
     17 C                    -0.006701
     18 C                     0.126213
     19 C                    -0.129458
     20 H                     0.088184
     21 C                    -0.073203
     22 H                     0.094305
     23 C                    -0.094436
     24 H                     0.087091
     25 C                    -0.090555
     26 H                     0.098541
     27 C                    -0.120133
     28 H                     0.089861
     29 C                    -0.006808
     30 C                    -0.004520
     31 C                     0.024996
     32 C                    -0.029193
     33 C                    -0.026021
     34 C                     0.019503
     35 C                    -0.011527
     36 C                     0.004501
     37 C                     0.004383
     38 C                    -0.000179
     39 C                    -0.066873
     40 C                    -0.021589
     41 C                    -0.005791
     42 C                     0.023679
     43 C                     0.026155
     44 C                     0.002197
     45 C                    -0.071944
     46 C                     0.015983
     47 C                    -0.005738
     48 C                    -0.015156
     49 C                    -0.017171
     50 C                     0.000089
     51 C                     0.023237
     52 C                     0.007190
     53 C                     0.025968
     54 C                    -0.015974
     55 C                     0.021747
     56 C                    -0.019035
     57 C                     0.049725
     58 C                    -0.023708
     59 C                    -0.031945
     60 C                    -0.009920
     61 C                     0.002758
     62 C                    -0.000739
     63 C                     0.011236
     64 C                    -0.015316
     65 C                     0.020612
     66 C                     0.015678
     67 C                     0.016924
     68 C                    -0.022989
     69 C                     0.008975
     70 C                     0.024080
     71 C                    -0.006202
     72 C                     0.021177
     73 C                    -0.025387
     74 C                    -0.006584
     75 C                     0.000782
     76 C                    -0.020764
     77 C                     0.003069
     78 C                    -0.017701
     79 C                     0.024116
     80 C                     0.005785
     81 C                    -0.001888
     82 C                     0.031748
     83 C                     0.003405
     84 C                    -0.025375
     85 C                     0.000429
     86 C                    -0.021295
     87 C                     0.013639
     88 C                    -0.010514
     89 O                    -0.479569
     90 C                    -0.083506
     91 H                     0.126511
     92 H                     0.135481
     93 H                     0.127995
     94 O                    -0.467028
     95 C                     0.585036
     96 C                    -0.262760
     97 H                     0.146993
     98 H                     0.137750
     99 C                    -0.184564
    100 H                     0.129631
    101 H                     0.107218
    102 C                    -0.225057
    103 H                     0.112685
    104 H                     0.113713
    105 C                     0.043971
    106 C                     0.080788
    107 C                    -0.101184
    108 H                     0.090112
    109 C                    -0.100379
    110 H                     0.094587
    111 C                    -0.088235
    112 H                     0.086500
    113 C                    -0.077655
    114 H                     0.099801
    115 C                    -0.123413
    116 H                     0.100872
    117 C                    -0.006130
    118 C                     0.006747
    119 C                     0.002351
    120 C                     0.009258
    121 C                    -0.022043
    122 C                    -0.033218
    123 C                     0.014184
    124 C                    -0.011956
    125 C                    -0.027787
    126 C                     0.003815
    127 C                    -0.046739
    128 C                     0.002320
    129 C                    -0.018457
    130 C                    -0.010034
    131 C                    -0.005358
    132 C                     0.004231
    133 C                    -0.100969
    134 C                     0.001247
    135 C                     0.007772
    136 C                     0.000586
    137 C                    -0.014811
    138 C                     0.033251
    139 C                    -0.011528
    140 C                     0.018439
    141 C                     0.022293
    142 C                     0.013821
    143 C                    -0.037120
    144 C                    -0.008381
    145 C                    -0.030001
    146 C                    -0.033653
    147 C                    -0.003795
    148 C                     0.036116
    149 C                    -0.010205
    150 C                     0.015282
    151 C                    -0.019851
    152 C                     0.011058
    153 C                    -0.005978
    154 C                     0.017270
    155 C                     0.001509
    156 C                     0.002267
    157 C                     0.004122
    158 C                     0.053353
    159 C                     0.003486
    160 C                     0.013035
    161 C                     0.015720
    162 C                    -0.003268
    163 C                    -0.012457
    164 C                     0.015697
    165 C                    -0.006483
    166 C                    -0.018517
    167 C                     0.009457
    168 C                     0.024787
    169 C                     0.028673
    170 C                    -0.002948
    171 C                    -0.005982
    172 C                     0.010328
    173 C                    -0.003249
    174 C                     0.000987
    175 C                     0.001503
    176 C                    -0.013740
  ----------------------------------------
  Sum of atomic charges =     0.000000

                    Cartesian Multipole Moments
 -----------------------------------------------------------------
    Charge (ESU x 10^10)
                 0.0000
    Dipole Moment (Debye)
         X       0.6018      Y       0.7475      Z      -1.2911
       Tot       1.6086
    Quadrupole Moments (Debye-Ang)
        XX    -817.1571     XY      16.5109     YY    -838.8673
        XZ      -2.9273     YZ      -6.8453     ZZ    -788.5693

 Total job time:  903.91s(wall), 8622.48s(cpu)
        *  Thank you very much for using Q-Chem.  Have a nice day.  *
