 Q-Chem 4.4, Q-Chem, Inc., Pleasanton, CA (2016)
 Q-Chem 4.4.2 for Intel X86 Linux

User input:
--------------------------------------------------------------
$comment
SP
$end

$rem
MEM_STATIC 5000
MEM_TOTAL 20000
JOBTYPE SP
EXCHANGE B3LYP
BASIS 6-31g(d,p)
$end

$molecule
0 1
O          -8.441000    -28.487000      2.646000
C          -7.691000    -28.938000      1.509000
H          -7.931000    -29.991000      1.317000
H          -6.621000    -28.708000      1.588000
H          -8.046000    -28.449000      0.594000
O          -7.533000    -29.970000      4.164000
C          -8.299000    -29.015000      3.924000
C          -9.296000    -28.388000      4.935000
H          -9.042000    -27.320000      4.930000
H          -9.017000    -28.737000      5.936000
C         -10.829000    -28.470000      4.580000
H         -11.036000    -28.178000      3.543000
H         -11.204000    -29.500000      4.570000
C         -11.503000    -27.401000      5.433000
H         -11.153000    -27.481000      6.469000
H         -11.148000    -26.391000      5.194000
C         -13.044000    -27.442000      5.392000
C         -13.612000    -28.564000      6.169000
C         -14.065000    -29.703000      5.489000
H         -14.130000    -29.842000      4.414000
C         -14.353000    -30.888000      6.166000
H         -14.622000    -31.769000      5.591000
C         -14.388000    -30.943000      7.585000
H         -14.622000    -31.846000      8.140000
C         -13.906000    -29.838000      8.287000
H         -13.896000    -29.852000      9.373000
C         -13.482000    -28.664000      7.584000
H         -12.922000    -27.883000      8.090000
C         -17.417000    -26.914000      2.199000
C         -18.205000    -26.141000      4.375000
C         -18.469000    -21.767000      3.250000
C         -13.211000    -24.309000      0.835000
C         -15.511000    -20.953000      4.742000
C         -17.438000    -27.050000      3.585000
C         -13.483000    -21.769000      1.898000
C         -19.133000    -23.747000      1.969000
C         -15.215000    -24.585000      6.553000
C         -12.533000    -23.968000      2.031000
C         -13.748000    -26.100000      5.483000
C         -14.078000    -23.878000      6.113000
C         -12.615000    -22.810000      3.958000
C         -14.279000    -20.909000      2.627000
C         -16.280000    -26.457000      5.506000
C         -16.682000    -20.621000      2.625000
C         -13.738000    -26.856000      4.145000
C         -13.123000    -26.203000      2.956000
C         -16.723000    -20.680000      4.054000
C         -16.398000    -23.381000     -0.269000
C         -17.700000    -21.967000      0.984000
C         -18.344000    -23.214000      0.917000
C         -19.036000    -25.117000      2.278000
C         -13.911000    -26.442000      1.803000
C         -15.130000    -25.869000      6.069000
C         -18.983000    -25.178000      3.677000
C         -12.616000    -22.663000      2.551000
C         -17.547000    -25.841000      5.557000
C         -14.218000    -22.473000      5.777000
C         -15.061000    -25.344000      0.010000
C         -19.148000    -23.008000      3.141000
C         -13.222000    -24.702000      5.471000
C         -17.464000    -25.420000      0.381000
C         -13.467000    -21.927000      4.708000
C         -16.496000    -23.878000      6.542000
C         -15.353000    -21.416000      0.749000
C         -14.101000    -22.105000      0.675000
C         -16.602000    -22.532000      6.223000
C         -13.861000    -25.557000      0.717000
C         -12.569000    -24.907000      3.082000
C         -15.166000    -24.011000     -0.364000
C         -15.015000    -27.397000      3.608000
C         -18.447000    -23.568000      5.429000
C         -12.541000    -24.173000      4.311000
C         -15.475000    -21.841000      5.807000
C         -16.218000    -26.142000      0.375000
C         -17.828000    -21.403000      4.426000
C         -18.176000    -25.955000      1.513000
C         -17.808000    -21.291000      2.171000
C         -17.643000    -24.513000      6.075000
C         -17.795000    -22.327000      5.526000
C         -16.248000    -27.163000      4.325000
C         -15.012000    -27.221000      2.164000
C         -16.540000    -22.058000      0.247000
C         -19.090000    -23.891000      4.197000
C         -14.280000    -20.972000      4.050000
C         -14.018000    -23.371000      0.133000
C         -15.483000    -20.666000      1.929000
C         -16.217000    -27.016000      1.513000
C         -17.525000    -24.077000      0.126000
O          -7.986000    -28.747000     -2.722000
C          -7.673000    -30.065000     -2.155000
H          -7.688000    -30.149000     -1.061000
H          -6.692000    -30.413000     -2.500000
H          -8.442000    -30.766000     -2.502000
O          -9.989000    -28.833000     -1.775000
C          -9.252000    -28.226000     -2.523000
C          -9.407000    -26.905000     -3.223000
H         -10.181000    -26.254000     -2.797000
H          -9.668000    -27.031000     -4.281000
C          -7.989000    -26.181000     -3.166000
H          -7.573000    -26.097000     -2.154000
H          -7.292000    -26.725000     -3.816000
C          -7.989000    -24.816000     -3.763000
H          -6.920000    -24.651000     -3.946000
H          -8.386000    -24.923000     -4.781000
C          -8.628000    -23.757000     -3.062000
C          -8.257000    -23.711000     -1.565000
C          -8.980000    -24.449000     -0.579000
H          -9.811000    -25.084000     -0.875000
C          -8.671000    -24.287000      0.801000
H          -9.085000    -24.944000      1.560000
C          -7.542000    -23.510000      1.109000
H          -7.279000    -23.307000      2.142000
C          -6.801000    -22.804000      0.139000
H          -5.915000    -22.220000      0.369000
C          -7.169000    -22.913000     -1.198000
H          -6.709000    -22.397000     -2.034000
C         -13.586000    -21.528000     -2.465000
C         -12.027000    -19.698000     -2.084000
C         -13.017000    -17.410000     -5.833000
C         -12.685000    -23.760000     -6.902000
C         -10.259000    -18.630000     -7.581000
C         -12.394000    -21.036000     -1.925000
C         -11.792000    -21.722000     -8.700000
C         -14.523000    -18.558000     -4.290000
C          -8.691000    -20.239000     -4.197000
C         -11.316000    -23.627000     -7.119000
C          -8.977000    -22.484000     -3.805000
C          -8.383000    -20.814000     -5.444000
C          -9.689000    -22.064000     -7.521000
C         -11.512000    -20.315000     -8.840000
C         -10.076000    -20.883000     -2.311000
C         -12.656000    -18.362000     -7.859000
C         -10.062000    -23.488000     -3.530000
C         -10.737000    -24.114000     -4.771000
C         -11.426000    -17.847000     -7.359000
C         -15.248000    -21.219000     -6.527000
C         -14.626000    -19.049000     -6.616000
C         -15.107000    -19.248000     -5.391000
C         -14.221000    -19.248000     -3.124000
C         -12.140000    -24.066000     -4.585000
C          -9.032000    -21.127000     -3.236000
C         -12.959000    -18.797000     -2.619000
C         -10.880000    -22.560000     -8.044000
C         -10.652000    -19.617000     -2.333000
C          -8.695000    -20.092000     -6.646000
C         -14.315000    -23.265000     -5.397000
C         -13.445000    -17.625000     -4.515000
C          -8.654000    -22.156000     -5.249000
C         -15.135000    -21.414000     -4.077000
C          -9.343000    -20.758000     -7.674000
C          -9.182000    -18.906000     -4.131000
C         -13.720000    -20.479000     -8.295000
C         -13.164000    -21.800000     -8.395000
C          -9.566000    -18.236000     -5.293000
C         -13.101000    -23.962000     -5.617000
C         -10.290000    -23.764000     -6.106000
C         -14.622000    -22.516000     -6.577000
C         -11.196000    -23.060000     -2.687000
C         -11.086000    -17.675000     -3.767000
C          -9.331000    -22.774000     -6.336000
C          -9.234000    -18.776000     -6.557000
C         -14.579000    -22.687000     -4.119000
C         -11.631000    -17.253000     -6.113000
C         -14.508000    -20.637000     -3.059000
C         -13.597000    -18.118000     -6.895000
C         -10.178000    -18.608000     -3.224000
C         -10.699000    -17.470000     -5.080000
C         -11.184000    -21.802000     -2.062000
C         -12.374000    -23.382000     -3.353000
C         -14.731000    -20.232000     -7.438000
C         -12.488000    -17.783000     -3.519000
C         -10.296000    -19.869000     -8.292000
C         -13.613000    -22.829000     -7.515000
C         -12.688000    -19.565000     -8.575000
C         -13.607000    -22.724000     -3.132000
C         -15.340000    -20.640000     -5.262000
$end

--------------------------------------------------------------

             Standard Nuclear Orientation (Angstroms)
    I     Atom           X                Y                Z
 ----------------------------------------------------------------
    1      O       3.6284138338    -6.4795142691    -0.5904712147
    2      C       2.6468218785    -7.3990331389    -0.0908390687
    3      H       3.0112247602    -7.8367687779     0.8466421579
    4      H       2.3173568094    -8.1212183657    -0.8484288432
    5      H       1.7482165451    -6.8633128854     0.2376168106
    6      O       5.3257467742    -8.0224570514    -0.8482801742
    7      C       4.9133943371    -6.8511805179    -0.9685205572
    8      C       5.7783714490    -5.6340989592    -1.3925324383
    9      H       5.2350991430    -5.2072335819    -2.2456479939
   10      H       6.7100831022    -6.0221293477    -1.8203043553
   11      C       5.9350425703    -4.4634268979    -0.3495467795
   12      H       4.9776490794    -4.1686304182     0.0976385727
   13      H       6.4822940110    -4.7710305367     0.5490748662
   14      C       6.3815936364    -3.2518311979    -1.1602711501
   15      H       7.2055239095    -3.5364435386    -1.8253506344
   16      H       5.6357868054    -2.9506538298    -1.9061333115
   17      C       6.7909187566    -2.0369729996    -0.3031740120
   18      C       8.1047437354    -2.2097459726     0.3519980453
   19      C       8.1486405683    -2.5478027661     1.7116747247
   20      H       7.3086262187    -2.6238744527     2.3956045391
   21      C       9.3271523964    -2.9875979740     2.3143255739
   22      H       9.2966713807    -3.3167247712     3.3486821174
   23      C      10.5740585212    -2.9309468422     1.6362202981
   24      H      11.5095701872    -3.2526953876     2.0828586265
   25      C      10.5558668774    -2.6354036596     0.2729608615
   26      H      11.4876508466    -2.6050546674    -0.2843088877
   27      C       9.3223255813    -2.3127434040    -0.3801296606
   28      H       9.2571896841    -2.2800455429    -1.4637740510
   29      C       5.0395125114     1.6593294283     3.2838981263
   30      C       6.7785280505     2.8445371233     2.0491687330
   31      C       3.9701892394     5.5955246803    -0.1896920450
   32      C       1.5664142878    -0.2455366346     0.0210725087
   33      C       4.0699822608     3.7591665434    -3.0630618691
   34      C       6.2898825587     1.6553857722     2.6703085301
   35      C       1.4356767591     1.5213234857    -2.1041724216
   36      C       3.9277749131     4.9041756548     2.1603067954
   37      C       7.1302739541     1.4507138891    -1.6976234431
   38      C       2.2516053048    -0.5384113239    -1.1835513690
   39      C       6.4745343187    -0.6725233307    -0.8888693154
   40      C       6.1292412535     0.9343645904    -2.5446977811
   41      C       3.4134431522     0.2952842603    -2.9202440560
   42      C       1.9017030964     2.7022262595    -2.6454164440
   43      C       7.3514578644     1.1561932545     0.6686295598
   44      C       2.4384870646     4.8074427862    -1.5789815669
   45      C       5.6597187030    -1.1851833746     0.3091019663
   46      C       4.1865082822    -1.3453303267     0.1595726726
   47      C       3.6973577014     4.8669895919    -2.2564045496
   48      C       1.0971597297     2.8221087591     1.6354828958
   49      C       1.9080158301     4.7606173356     0.7139049647
   50      C       2.5762045794     4.5388391569     1.9298705213
   51      C       4.7663541457     4.0291385033     2.8764665919
   52      C       3.5237482209    -0.9017091090     1.3306505164
   53      C       7.2565053356     0.6021130526    -0.6233426331
   54      C       5.9744469391     4.0105208637     2.1666101374
   55      C       2.1463800811     0.3225457737    -2.2917005143
   56      C       7.4752783525     2.5429181589     0.8900082536
   57      C       5.2641172060     1.8635651224    -3.2480239884
   58      C       1.8272476400     0.5965928180     2.1180069253
   59      C       4.6095237135     5.4036727740     1.0622853016
   60      C       5.7051890528    -0.2698224513    -2.1042556175
   61      C       2.8426546471     2.5025746057     3.2378319271
   62      C       3.9028227086     1.5357849756    -3.4585363791
   63      C       7.1650275636     2.8998640313    -1.4984073493
   64      C       0.8159025917     3.1864873141    -0.7682010874
   65      C       0.7086079455     1.7676804525    -0.9204375758
   66      C       6.3309226844     3.7675249738    -2.1884410725
   67      C       2.1931028541    -0.4652669922     1.2672298065
   68      C       3.5721552029    -1.0195665262    -1.0728461849
   69      C       0.9515526887     1.4533962544     1.4646798835
   70      C       5.7914109853    -0.4999251114     1.6224401769
   71      C       6.6173129325     4.6063693655    -0.1094803436
   72      C       4.2929291679    -0.5552014040    -2.2195069563
   73      C       5.3601961686     3.2507973274    -3.0318558998
   74      C       2.8096352923     1.0720060424     3.0759081554
   75      C       4.6384259944     5.3451861062    -1.3801302994
   76      C       4.2421883975     2.8081639260     3.3878767501
   77      C       2.6559693453     5.2983882123    -0.3004800823
   78      C       7.3618462263     3.4278594383    -0.2258484059
   79      C       5.9751904919     4.8194468168    -1.3410934204
   80      C       6.6428284641     0.6621363174     1.7400646329
   81      C       4.4788829835    -0.4603244950     2.2483978715
   82      C       0.9969400133     3.7410479225     0.5481670160
   83      C       5.8837620569     4.8801584971     1.0832244080
   84      C       3.1461322539     2.7269401628    -3.3380088890
   85      C       0.7779095530     0.9288421151     0.1727030972
   86      C       1.5314823834     3.7854357259    -1.8174895900
   87      C       4.1657958637     0.6032374477     3.0782553590
   88      C       2.0521280048     3.3349767605     2.4931378420
   89      O      -0.9724035938    -7.2303985074     2.1222213331
   90      C       0.0041494812    -8.2375240220     2.5565303124
   91      H       0.9804110617    -8.2280979359     2.0555897217
   92      H      -0.4094922752    -9.2480950485     2.4558491432
   93      H       0.2279308601    -8.0477815733     3.6134554269
   94      O       0.4291301320    -5.6276659136     2.7412249261
   95      C      -0.6806435077    -5.8942997171     2.3308216080
   96      C      -1.8159303557    -5.0183441138     1.8803867584
   97      H      -1.5232969898    -3.9917823422     1.6256523040
   98      H      -2.5928854745    -4.9281707916     2.6495229722
   99      C      -2.4772956938    -5.7295476771     0.6174796435
  100      H      -1.7641197924    -5.9713483606    -0.1807487468
  101      H      -2.9870779678    -6.6404555032     0.9560264873
  102      C      -3.5867269131    -4.9479547955     0.0027366589
  103      H      -4.1113686705    -5.7190373455    -0.5748944756
  104      H      -4.3001951522    -4.7353135800     0.8096621730
  105      C      -3.2754140358    -3.7769898905    -0.7409894221
  106      C      -2.1184898692    -3.9841806451    -1.7406716035
  107      C      -0.7516343533    -3.7960626626    -1.3720435749
  108      H      -0.4960646284    -3.5151713386    -0.3536201954
  109      C       0.2715135055    -3.8897561326    -2.3571907683
  110      H       1.3232632794    -3.9123102984    -2.0880444833
  111      C      -0.1185718634    -4.3261136751    -3.6341635558
  112      H       0.6026643565    -4.3734346423    -4.4435127025
  113      C      -1.4626856517    -4.5469627940    -3.9988562907
  114      H      -1.7675132995    -4.9051401807    -4.9774987508
  115      C      -2.4560089584    -4.3725681667    -3.0408535129
  116      H      -3.5244314547    -4.4737513410    -3.1989273396
  117      C      -2.3714622240     1.5592487616     0.0426190067
  118      C      -3.2802533416     1.4025170076    -2.2099519382
  119      C      -7.2154433268     3.3916644135    -1.3002171538
  120      C      -5.4343238068    -0.6769835097     3.3740958795
  121      C      -8.9374727209     0.3741865660    -1.0175332211
  122      C      -2.4555662070     0.9135860947    -1.1945447822
  123      C      -8.1129218152    -0.2680809287     2.4567037122
  124      C      -4.9758279920     3.9917518968    -0.5315773394
  125      C      -5.7722399155    -1.6945187968    -2.5010157487
  126      C      -6.0569951593    -1.7100227914     2.6783594142
  127      C      -4.3727168607    -2.7750539115    -1.0349788852
  128      C      -6.6711512644    -2.3361848912    -1.6288225304
  129      C      -7.5367977969    -2.1130697315     0.9755854074
  130      C      -8.9275763056     0.3325284347     1.4304213661
  131      C      -3.4940710887    -0.8790580157    -2.3141267150
  132      C      -8.6295200550     2.4508801271     0.2019855400
  133      C      -3.3967825742    -2.4833136318     0.0710527045
  134      C      -3.9961942501    -2.3633365759     1.4901697360
  135      C      -8.7684278904     1.7865012355    -1.0499850274
  136      C      -5.5197618366     2.9056891600     2.8053851573
  137      C      -6.7203070472     3.6843347614     1.0572126186
  138      C      -5.4526465131     4.0066210301     0.8107266525
  139      C      -3.7597676962     3.3906277241    -0.8260380093
  140      C      -3.4700531951    -1.1972092676     2.0973202043
  141      C      -4.4666214994    -1.9037846264    -2.2183244610
  142      C      -3.8751672435     2.6628469269    -2.0540803765
  143      C      -7.4366819374    -1.4698471489     2.2061411859
  144      C      -3.9091197211     0.3325182667    -2.8571124833
  145      C      -7.9292645479    -1.7096311501    -1.3321520474
  146      C      -3.9139556248     0.9929821027     3.1159380887
  147      C      -5.8759210103     3.6658084162    -1.6117585306
  148      C      -5.8404951040    -2.9032365512    -0.6796688242
  149      C      -3.3709757031     2.8046868682     1.6113120065
  150      C      -8.3365010995    -1.6258956166    -0.0102629630
  151      C      -6.1649819298    -0.5079814315    -3.1794026522
  152      C      -7.7787529277     2.0369257967     2.4175482468
  153      C      -7.4383284957     0.8036834088     3.0713076970
  154      C      -7.3461564821     0.1475160768    -2.8304761649
  155      C      -4.1320384115    -0.4062326737     3.0645288690
  156      C      -5.4147548652    -2.5736724291     1.7092099376
  157      C      -5.1664944831     1.6324229908     3.3803464076
  158      C      -2.5501835681    -1.2808238223    -0.0596277495
  159      C      -5.8672374839     1.7688405481    -3.2018284987
  160      C      -6.3112118882    -2.7702982906     0.6554623034
  161      C      -8.2816021121    -0.4935075667    -1.9857571811
  162      C      -3.0020338475     1.6023245363     2.2026120404
  163      C      -7.9072092725     2.3564216083    -1.9885319152
  164      C      -3.0151925913     2.8030763049     0.2305159378
  165      C      -7.6521282986     3.3943438765     0.0320016930
  166      C      -5.2447999027     0.5092555053    -3.3276020165
  167      C      -7.1867522694     1.5220121658    -2.8646053077
  168      C      -2.5713042981    -0.5196463184    -1.2400919473
  169      C      -2.6522776609    -0.5513132780     1.1203363016
  170      C      -6.8747822363     3.0339308968     2.3375681274
  171      C      -5.2199057021     2.8445699898    -2.5217257619
  172      C      -8.9912935547    -0.3593201880     0.2076533605
  173      C      -6.1101918569     0.5945145542     3.5479033947
  174      C      -8.7047982693     1.7344225027     1.4027813857
  175      C      -2.4109667341     0.8401795418     1.2075760235
  176      C      -4.6669833949     3.3765637045     1.8079002739
 ----------------------------------------------------------------

    9   -5804.3003115966      9.46E-06 Convergence criterion met
 Total energy in the final basis set = -5804.3003115966

                    Orbital Energies (a.u.)
 --------------------------------------------------------------

 Alpha MOs
 -- Occupied --
-19.188 -19.188 -19.140 -19.135 -10.323 -10.323 -10.248 -10.244
-10.244 -10.242 -10.241 -10.241 -10.240 -10.240 -10.235 -10.231
-10.230 -10.229 -10.228 -10.227 -10.227 -10.226 -10.225 -10.225
-10.225 -10.225 -10.224 -10.224 -10.224 -10.224 -10.224 -10.224
-10.223 -10.223 -10.223 -10.223 -10.222 -10.222 -10.222 -10.222
-10.222 -10.222 -10.222 -10.222 -10.221 -10.221 -10.221 -10.221
-10.221 -10.221 -10.221 -10.219 -10.219 -10.219 -10.219 -10.219
-10.218 -10.218 -10.218 -10.218 -10.218 -10.218 -10.218 -10.218
-10.218 -10.218 -10.218 -10.217 -10.217 -10.217 -10.217 -10.217
-10.216 -10.216 -10.216 -10.216 -10.216 -10.216 -10.216 -10.216
-10.216 -10.216 -10.216 -10.215 -10.215 -10.215 -10.215 -10.215
-10.215 -10.215 -10.215 -10.215 -10.215 -10.215 -10.215 -10.214
-10.214 -10.214 -10.214 -10.214 -10.214 -10.213 -10.213 -10.213
-10.213 -10.213 -10.213 -10.213 -10.212 -10.212 -10.212 -10.212
-10.212 -10.212 -10.212 -10.212 -10.211 -10.211 -10.211 -10.211
-10.211 -10.211 -10.211 -10.211 -10.210 -10.210 -10.210 -10.209
-10.209 -10.209 -10.209 -10.209 -10.209 -10.208 -10.207 -10.206
-10.206 -10.206 -10.204 -10.204 -10.203 -10.203 -10.202 -10.200
-10.198 -10.198 -10.196 -10.190  -1.093  -1.076  -1.004  -0.994
 -0.982  -0.982  -0.966  -0.964  -0.962  -0.961  -0.959  -0.958
 -0.937  -0.934  -0.925  -0.924  -0.924  -0.923  -0.923  -0.921
 -0.920  -0.919  -0.897  -0.895  -0.890  -0.889  -0.886  -0.886
 -0.875  -0.874  -0.855  -0.851  -0.842  -0.841  -0.838  -0.836
 -0.835  -0.834  -0.828  -0.825  -0.811  -0.807  -0.799  -0.797
 -0.795  -0.794  -0.793  -0.793  -0.792  -0.791  -0.782  -0.781
 -0.773  -0.770  -0.769  -0.767  -0.766  -0.766  -0.766  -0.764
 -0.755  -0.749  -0.748  -0.742  -0.735  -0.734  -0.719  -0.716
 -0.714  -0.713  -0.713  -0.712  -0.710  -0.710  -0.709  -0.709
 -0.707  -0.707  -0.706  -0.705  -0.705  -0.701  -0.674  -0.672
 -0.660  -0.658  -0.657  -0.656  -0.650  -0.650  -0.635  -0.634
 -0.629  -0.626  -0.626  -0.624  -0.623  -0.622  -0.621  -0.619
 -0.616  -0.615  -0.614  -0.613  -0.612  -0.611  -0.610  -0.608
 -0.608  -0.605  -0.602  -0.601  -0.571  -0.569  -0.565  -0.563
 -0.562  -0.561  -0.559  -0.559  -0.557  -0.557  -0.554  -0.551
 -0.540  -0.538  -0.535  -0.533  -0.530  -0.527  -0.526  -0.526
 -0.525  -0.523  -0.521  -0.519  -0.516  -0.514  -0.513  -0.512
 -0.510  -0.508  -0.506  -0.499  -0.494  -0.491  -0.489  -0.486
 -0.483  -0.483  -0.480  -0.480  -0.478  -0.478  -0.475  -0.473
 -0.473  -0.473  -0.471  -0.471  -0.469  -0.467  -0.467  -0.466
 -0.465  -0.465  -0.464  -0.463  -0.462  -0.461  -0.459  -0.459
 -0.457  -0.455  -0.454  -0.452  -0.450  -0.447  -0.446  -0.443
 -0.442  -0.441  -0.440  -0.439  -0.438  -0.438  -0.437  -0.434
 -0.433  -0.432  -0.429  -0.429  -0.427  -0.427  -0.426  -0.425
 -0.424  -0.423  -0.422  -0.422  -0.421  -0.421  -0.419  -0.419
 -0.417  -0.417  -0.416  -0.415  -0.415  -0.414  -0.414  -0.412
 -0.412  -0.412  -0.411  -0.410  -0.406  -0.402  -0.401  -0.398
 -0.397  -0.394  -0.393  -0.392  -0.391  -0.389  -0.387  -0.386
 -0.385  -0.378  -0.376  -0.375  -0.375  -0.371  -0.368  -0.366
 -0.366  -0.365  -0.363  -0.363  -0.361  -0.361  -0.360  -0.359
 -0.358  -0.358  -0.356  -0.355  -0.355  -0.354  -0.352  -0.352
 -0.351  -0.350  -0.349  -0.347  -0.346  -0.345  -0.345  -0.344
 -0.343  -0.341  -0.341  -0.340  -0.337  -0.337  -0.336  -0.334
 -0.334  -0.333  -0.332  -0.331  -0.327  -0.327  -0.326  -0.325
 -0.313  -0.307  -0.300  -0.294  -0.289  -0.287  -0.274  -0.271
 -0.271  -0.270  -0.267  -0.267  -0.267  -0.266  -0.264  -0.263
 -0.263  -0.262  -0.260  -0.259  -0.258  -0.257  -0.256  -0.255
 -0.253  -0.252  -0.249  -0.245  -0.223  -0.222  -0.216  -0.211
 -0.209  -0.208  -0.207  -0.206  -0.203  -0.199

          Ground-State Mulliken Net Atomic Charges

     Atom                 Charge (a.u.)
  ----------------------------------------
      1 O                    -0.474670
      2 C                    -0.077739
      3 H                     0.125888
      4 H                     0.123909
      5 H                     0.132992
      6 O                    -0.475187
      7 C                     0.570646
      8 C                    -0.245767
      9 H                     0.124654
     10 H                     0.136830
     11 C                    -0.178415
     12 H                     0.128266
     13 H                     0.123968
     14 C                    -0.190360
     15 H                     0.107940
     16 H                     0.111063
     17 C                     0.004510
     18 C                     0.098974
     19 C                    -0.100201
     20 H                     0.095388
     21 C                    -0.100050
     22 H                     0.089974
     23 C                    -0.077143
     24 H                     0.093808
     25 C                    -0.093928
     26 H                     0.094284
     27 C                    -0.109288
     28 H                     0.088756
     29 C                     0.043602
     30 C                    -0.005123
     31 C                     0.017245
     32 C                    -0.019699
     33 C                     0.008154
     34 C                    -0.023842
     35 C                     0.027110
     36 C                    -0.014768
     37 C                    -0.016349
     38 C                    -0.001292
     39 C                    -0.102062
     40 C                     0.018739
     41 C                    -0.021292
     42 C                    -0.003443
     43 C                     0.034198
     44 C                    -0.006027
     45 C                    -0.081386
     46 C                     0.025865
     47 C                    -0.026075
     48 C                     0.000773
     49 C                     0.017446
     50 C                    -0.009876
     51 C                    -0.016798
     52 C                     0.028112
     53 C                     0.046138
     54 C                     0.016800
     55 C                    -0.013927
     56 C                    -0.023835
     57 C                    -0.003737
     58 C                    -0.016293
     59 C                    -0.001972
     60 C                     0.027372
     61 C                    -0.019072
     62 C                    -0.023953
     63 C                     0.006293
     64 C                    -0.031629
     65 C                     0.019379
     66 C                    -0.003262
     67 C                    -0.008065
     68 C                     0.008328
     69 C                     0.030453
     70 C                    -0.005120
     71 C                    -0.006602
     72 C                    -0.010896
     73 C                     0.019174
     74 C                    -0.020363
     75 C                     0.014017
     76 C                    -0.010331
     77 C                     0.018398
     78 C                    -0.009755
     79 C                    -0.014362
     80 C                     0.019290
     81 C                    -0.010935
     82 C                    -0.014624
     83 C                     0.001288
     84 C                    -0.009602
     85 C                    -0.002639
     86 C                     0.007656
     87 C                    -0.006497
     88 C                     0.028561
     89 O                    -0.478693
     90 C                    -0.083057
     91 H                     0.120454
     92 H                     0.124077
     93 H                     0.129783
     94 O                    -0.478226
     95 C                     0.608933
     96 C                    -0.269207
     97 H                     0.137615
     98 H                     0.141723
     99 C                    -0.178166
    100 H                     0.118663
    101 H                     0.121841
    102 C                    -0.196324
    103 H                     0.099975
    104 H                     0.098178
    105 C                     0.041902
    106 C                     0.077966
    107 C                    -0.123100
    108 H                     0.100935
    109 C                    -0.093716
    110 H                     0.111021
    111 C                    -0.092878
    112 H                     0.090390
    113 C                    -0.086905
    114 H                     0.095732
    115 C                    -0.095244
    116 H                     0.092916
    117 C                    -0.001035
    118 C                     0.010463
    119 C                    -0.017053
    120 C                    -0.003443
    121 C                    -0.006817
    122 C                     0.009733
    123 C                    -0.008858
    124 C                    -0.025128
    125 C                     0.020471
    126 C                    -0.022856
    127 C                    -0.096545
    128 C                     0.006924
    129 C                     0.017197
    130 C                    -0.028053
    131 C                     0.000289
    132 C                    -0.011543
    133 C                    -0.092768
    134 C                    -0.008570
    135 C                    -0.006203
    136 C                    -0.034789
    137 C                     0.013140
    138 C                     0.015467
    139 C                     0.006442
    140 C                     0.028618
    141 C                     0.033807
    142 C                    -0.018908
    143 C                     0.019078
    144 C                     0.005588
    145 C                    -0.004138
    146 C                    -0.007962
    147 C                     0.003330
    148 C                     0.032142
    149 C                    -0.012601
    150 C                     0.001636
    151 C                    -0.022287
    152 C                     0.037433
    153 C                    -0.010040
    154 C                     0.015992
    155 C                     0.000031
    156 C                    -0.017292
    157 C                     0.009233
    158 C                     0.038308
    159 C                    -0.012238
    160 C                    -0.000280
    161 C                    -0.030460
    162 C                    -0.019484
    163 C                    -0.008899
    164 C                    -0.001605
    165 C                     0.029461
    166 C                    -0.004986
    167 C                     0.032615
    168 C                    -0.022219
    169 C                     0.000063
    170 C                    -0.024585
    171 C                    -0.000870
    172 C                     0.002777
    173 C                    -0.003414
    174 C                     0.015085
    175 C                     0.029165
    176 C                     0.016861
  ----------------------------------------
  Sum of atomic charges =     0.000000

                    Cartesian Multipole Moments
 -----------------------------------------------------------------
    Charge (ESU x 10^10)
                 0.0000
    Dipole Moment (Debye)
         X      -0.1399      Y      -2.9406      Z      -0.8568
       Tot       3.0661
    Quadrupole Moments (Debye-Ang)
        XX    -798.5891     XY      14.8261     YY    -812.7571
        XZ      -2.2752     YZ      -0.8619     ZZ    -803.7439

 Total job time:  855.75s(wall), 8230.75s(cpu)
        *  Thank you very much for using Q-Chem.  Have a nice day.  *
