 Q-Chem 4.4, Q-Chem, Inc., Pleasanton, CA (2016)
 Q-Chem 4.4.2 for Intel X86 Linux

User input:
--------------------------------------------------------------
$comment
SP
$end

$rem
MEM_STATIC 5000
MEM_TOTAL 20000
JOBTYPE SP
EXCHANGE B3LYP
BASIS 6-31g(d,p)
$end

$molecule
0 1
O         -10.747000      6.368000     -1.480000
C         -11.336000      7.367000     -2.331000
H         -12.049000      7.948000     -1.732000
H         -11.897000      6.799000     -3.082000
H         -10.574000      8.031000     -2.759000
O         -12.825000      5.823000     -0.407000
C         -11.609000      5.586000     -0.654000
C         -10.789000      4.542000      0.028000
H         -10.194000      4.968000      0.845000
H         -10.162000      4.059000     -0.732000
C         -11.605000      3.425000      0.758000
H         -12.024000      3.832000      1.687000
H         -12.414000      3.130000      0.079000
C         -10.735000      2.136000      1.018000
H         -10.451000      1.716000      0.046000
H          -9.819000      2.512000      1.490000
C         -11.363000      1.120000      2.032000
C         -12.517000      0.393000      1.390000
C         -12.352000     -0.798000      0.651000
H         -11.339000     -1.187000      0.688000
C         -13.401000     -1.358000     -0.077000
H         -13.223000     -2.371000     -0.425000
C         -14.684000     -0.819000      0.029000
H         -15.496000     -1.404000     -0.393000
C         -14.876000      0.372000      0.709000
H         -15.866000      0.804000      0.818000
C         -13.814000      0.956000      1.413000
H         -14.098000      1.763000      2.083000
C         -13.663000      0.605000      6.903000
C         -12.792000     -1.640000      6.407000
C          -9.351000     -1.558000      9.360000
C          -9.885000      4.081000      6.451000
C          -6.917000     -0.717000      7.058000
C         -13.411000     -0.463000      5.975000
C          -7.529000      2.833000      7.192000
C         -11.616000     -0.737000      9.534000
C          -9.556000     -1.415000      4.021000
C          -9.063000      3.619000      5.490000
C         -10.532000      0.496000      3.104000
C          -8.532000     -0.471000      3.905000
C          -7.624000      1.921000      4.919000
C          -6.898000      1.615000      7.602000
C         -11.921000     -1.131000      4.408000
C          -7.697000     -0.009000      9.196000
C         -11.482000      1.590000      3.448000
C         -10.907000      2.810000      4.152000
C          -7.473000     -1.057000      8.244000
C         -10.729000      2.713000      9.492000
C          -9.789000      0.758000     10.193000
C         -11.159000      0.502000     10.066000
C         -12.680000     -0.778000      8.675000
C         -11.802000      3.176000      5.173000
C         -10.775000     -0.852000      3.661000
C         -12.469000     -1.875000      7.796000
C          -7.869000      2.967000      5.815000
C         -11.897000     -2.079000      5.424000
C          -7.540000     -0.484000      4.881000
C         -11.739000      3.544000      7.552000
C         -10.682000     -1.764000      9.188000
C          -9.068000      0.758000      3.404000
C         -12.812000      1.693000      8.717000
C          -6.960000      0.729000      5.319000
C          -9.552000     -2.407000      5.057000
C          -8.320000      2.368000      9.234000
C          -8.343000      3.362000      8.230000
C          -8.469000     -2.411000      5.999000
C         -11.261000      3.775000      6.314000
C          -9.553000      2.986000      4.393000
C         -10.731000      3.708000      8.503000
C         -12.590000      1.234000      4.356000
C         -10.392000     -2.954000      7.118000
C          -8.675000      1.988000      3.998000
C          -7.467000     -1.399000      5.917000
C         -12.778000      2.625000      7.638000
C          -8.455000     -2.080000      8.346000
C         -13.280000      0.446000      8.231000
C          -8.910000     -0.314000      9.819000
C         -10.703000     -2.794000      5.768000
C          -8.998000     -2.711000      7.226000
C         -12.887000     -0.108000      4.750000
C         -12.767000      2.184000      5.280000
C          -9.542000      2.084000      9.915000
C         -11.289000     -2.505000      8.110000
C          -6.610000      0.588000      6.709000
C          -9.532000      3.978000      7.830000
C          -7.450000      1.325000      8.847000
C         -13.350000      1.907000      6.554000
C         -11.716000      1.709000      9.636000
O           2.398000     -8.503000      1.903000
C           2.025000     -7.975000      0.634000
H           0.942000     -7.876000      0.490000
H           2.219000     -8.670000     -0.193000
H           2.509000     -6.998000      0.512000
O           1.002000    -10.292000      1.676000
C           1.753000     -9.641000      2.413000
C           2.239000     -9.983000      3.853000
H           3.325000     -9.951000      3.705000
H           1.867000    -11.000000      4.026000
C           1.835000     -8.924000      4.811000
H           2.139000     -9.342000      5.778000
H           2.610000     -8.160000      4.677000
C           0.407000     -8.476000      4.751000
H           0.184000     -7.902000      3.843000
H          -0.185000     -9.387000      4.598000
C          -0.036000     -7.591000      5.995000
C           1.015000     -6.587000      6.323000
C           1.819000     -6.749000      7.504000
H           1.660000     -7.617000      8.138000
C           2.680000     -5.754000      7.962000
H           3.361000     -5.987000      8.775000
C           2.821000     -4.547000      7.179000
H           3.521000     -3.762000      7.449000
C           1.978000     -4.303000      6.077000
H           2.113000     -3.377000      5.526000
C           1.098000     -5.339000      5.558000
H           0.509000     -5.217000      4.654000
C          -2.755000     -6.996000     10.749000
C          -3.191000     -4.927000      9.540000
C          -7.669000     -5.817000      8.607000
C          -3.921000    -11.050000      7.858000
C          -6.850000     -6.975000      5.386000
C          -2.327000     -6.011000      9.876000
C          -6.038000    -10.234000      6.274000
C          -6.303000     -6.196000     10.664000
C          -3.110000     -5.466000      5.510000
C          -3.705000    -10.661000      6.552000
C          -1.493000     -7.154000      5.945000
C          -3.441000     -6.642000      4.803000
C          -4.325000     -9.307000      4.826000
C          -6.948000     -9.307000      5.885000
C          -1.978000     -5.429000      7.641000
C          -8.054000     -7.627000      7.364000
C          -1.040000     -8.087000      7.055000
C          -1.704000     -9.419000      7.190000
C          -7.660000     -6.635000      6.477000
C          -6.170000     -9.727000     10.237000
C          -7.636000     -8.049000      9.693000
C          -6.786000     -7.542000     10.711000
C          -4.987000     -5.890000     10.987000
C          -1.937000     -9.741000      8.528000
C          -2.004000     -5.809000      6.282000
C          -4.527000     -4.860000     10.098000
C          -4.742000    -10.301000      5.747000
C          -3.012000     -4.616000      8.150000
C          -4.801000     -6.939000      4.540000
C          -3.805000    -10.278000     10.009000
C          -6.740000     -5.368000      9.613000
C          -2.539000     -7.669000      4.999000
C          -4.538000     -8.299000     11.292000
C          -5.225000     -8.260000      4.513000
C          -4.194000     -4.696000      6.050000
C          -7.314000     -9.783000      8.054000
C          -6.287000    -10.621000      7.569000
C          -5.549000     -4.989000      5.813000
C          -3.035000    -10.575000      8.869000
C          -2.624000     -9.822000      6.192000
C          -5.151000    -10.565000      9.717000
C          -1.190000     -7.569000      8.497000
C          -5.443000     -4.259000      7.929000
C          -3.030000     -9.004000      5.165000
C          -5.854000     -6.086000      5.056000
C          -3.555000     -9.156000     10.806000
C          -7.456000     -5.468000      7.247000
C          -4.087000     -6.953000     11.234000
C          -8.057000     -7.157000      8.676000
C          -4.174000     -4.265000      7.392000
C          -6.333000     -4.613000      6.953000
C          -1.535000     -6.237000      8.710000
C          -1.660000     -8.598000      9.318000
C          -7.293000     -9.358000      9.394000
C          -5.644000     -4.560000      9.279000
C          -6.563000     -8.303000      4.984000
C          -5.172000    -10.999000      8.380000
C          -7.744000     -8.959000      7.064000
C          -2.435000     -8.317000     10.495000
C          -5.844000     -8.611000     10.967000
$end

--------------------------------------------------------------

             Standard Nuclear Orientation (Angstroms)
    I     Atom           X                Y                Z
 ----------------------------------------------------------------
    1      O     -10.9867895286     6.7592161060     0.7365731700
    2      C     -12.2626416288     7.4204053173     0.6721274948
    3      H     -13.0431505897     6.6762772663     0.8766029354
    4      H     -12.3575187696     7.7438150178    -0.3708252816
    5      H     -12.3266656686     8.2427538795     1.3962599168
    6      O     -11.7537749688     4.8112148340    -0.4396336056
    7      C     -10.8277770055     5.5217363725     0.0436064127
    8      C      -9.3989094641     5.1034003257     0.1474933767
    9      H      -9.1656626042     4.7128289800     1.1455113757
   10      H      -8.7766355878     5.9685460995    -0.1138799440
   11      C      -8.9831182179     3.9149302558    -0.7804621892
   12      H      -9.3815249670     2.9787297541    -0.3693032383
   13      H      -9.4267913023     4.1118371178    -1.7637876094
   14      C      -7.4216307050     3.8504500405    -0.9893163221
   15      H      -7.1105295779     4.7634322194    -1.5103917770
   16      H      -7.0055433240     3.8967813473     0.0245577832
   17      C      -6.9027684474     2.5101146162    -1.6131102850
   18      C      -7.2509413625     2.4512992971    -3.0786222704
   19      C      -6.4116049447     2.9776023834    -4.0837821776
   20      H      -5.4548667321     3.3230022863    -3.7040323922
   21      C      -6.8287783422     3.0685899215    -5.4110623381
   22      H      -6.0375542440     3.2847963652    -6.1225229485
   23      C      -8.0456841233     2.5037875254    -5.7957499689
   24      H      -8.2314819612     2.4238606417    -6.8628693890
   25      C      -8.9138245193     2.0178106416    -4.8324723759
   26      H      -9.8594719571     1.5606381898    -5.1069705958
   27      C      -8.5101224936     1.9577239072    -3.4916031583
   28      H      -9.1603088813     1.3762246889    -2.8435897940
   29      C      -7.1258278328    -2.8860563370    -1.2762875515
   30      C      -5.0075264552    -2.4416985460    -2.4424896897
   31      C      -2.2521876953    -3.5324365691     0.9905574820
   32      C      -7.2645219129    -0.2538529046     3.1523051192
   33      C      -1.6975803613    -0.2933067295     2.0541784610
   34      C      -6.3545079550    -2.1341547407    -2.2276138023
   35      C      -4.6660612356    -0.0865955571     4.0889737309
   36      C      -4.3076734960    -4.5397303879     0.2192733024
   37      C      -3.4918501590     1.1195632349    -1.3309786043
   38      C      -6.5670691833     0.8776983625     2.9382947924
   39      C      -5.7001629285     1.8221005521    -1.0567851880
   40      C      -3.5295759844     1.8275592267    -0.1266171811
   41      C      -4.4887533966     1.7280922340     2.4510579360
   42      C      -3.2853869237    -0.3762970619     3.8448498226
   43      C      -5.1811678961    -0.2093529848    -2.4281737848
   44      C      -2.3264231774    -2.4054613045     2.9619602431
   45      C      -7.0587051869     1.2853083729    -0.7671490567
   46      C      -7.4393603599     1.1184255471     0.6963716167
   47      C      -1.5926045509    -1.6412588039     1.9964092286
   48      C      -6.2508355024    -3.5385855758     3.0322545470
   49      C      -4.0745466139    -4.0733479162     2.6141374420
   50      C      -4.8119930733    -4.6030626786     1.5491773534
   51      C      -5.1380995854    -4.2528820181    -0.8294251875
   52      C      -8.1034775137    -0.1141023788     0.8276930461
   53      C      -4.7715355727     0.9985383984    -1.8604011491
   54      C      -4.3633782342    -3.5670534879    -1.8041133711
   55      C      -5.2454100464     1.0038552267     3.3783704354
   56      C      -4.2830017969    -1.2549388400    -2.6058923200
   57      C      -2.6851330431     1.3968170480     0.8922970911
   58      C      -7.8848624770    -2.1272905921     2.1308870776
   59      C      -3.0089295756    -3.9969809481    -0.0366334674
   60      C      -4.8728888122     2.2410589280     0.1440609370
   61      C      -7.0206978183    -3.9351141086     0.7453371595
   62      C      -3.1072405640     1.4660017686     2.2401293193
   63      C      -2.5709644722     0.0402099550    -1.5415541230
   64      C      -4.4638945994    -2.3146014272     4.1713660486
   65      C      -5.3927322421    -1.2715007634     4.3853348285
   66      C      -1.6796475557    -0.3191852230    -0.4754123592
   67      C      -7.9712887770    -0.7857045205     2.0462330336
   68      C      -6.6326712598     1.5270483440     1.7473964050
   69      C      -7.1637885938    -2.4993879386     3.2662095074
   70      C      -7.3569821973    -0.0610876317    -1.2935639348
   71      C      -2.3375895488    -2.2397086099    -1.5354318186
   72      C      -5.4010878025     2.0934464323     1.4553203994
   73      C      -1.7750991047     0.3604995972     0.7751033532
   74      C      -7.8808670323    -2.8111631510     0.9210191676
   75      C      -1.4722293680    -2.3317060286     0.7594575540
   76      C      -6.5091486252    -3.9185763672    -0.5768855624
   77      C      -2.7843542026    -3.5374256981     2.2826379428
   78      C      -2.9117952565    -1.1560911160    -2.1994212252
   79      C      -1.5784389408    -1.6848785971    -0.4725098971
   80      C      -6.4987755157    -0.7632314574    -2.1962733785
   81      C      -7.9936194947    -0.7963561713    -0.3761337597
   82      C      -4.9322011085    -3.4982468950     3.5253216074
   83      C      -3.0690417118    -3.4336260294    -1.3627676109
   84      C      -2.5137728110     0.3672683739     2.9578074878
   85      C      -6.6988817041    -1.3352087814     3.8922913501
   86      C      -3.2032227015    -1.7662856230     3.8479867905
   87      C      -7.9358865801    -2.2233579898    -0.3709645559
   88      C      -6.1397450766    -4.2651600571     1.8228458318
   89      O       9.1425886548     7.0358159551     0.3989617449
   90      C       8.2741879489     8.0821910349    -0.0244215404
   91      H       7.4630714800     7.7523007390    -0.6852456217
   92      H       8.7540403300     8.7817616871    -0.7207925586
   93      H       7.8563024472     8.5648221424     0.8678272599
   94      O       9.4883240866     6.3271103822    -1.7409142847
   95      C       9.6448805869     6.1130306166    -0.5323486406
   96      C      10.4838321836     4.9960331873     0.1570256854
   97      H      11.1465762960     5.6071346259     0.7812446159
   98      H      11.0140917033     4.5106417833    -0.6711180381
   99      C       9.6247928692     4.1496398978     1.0219712650
  100      H      10.3109498843     3.3583154945     1.3463525828
  101      H       9.5514146900     4.7345807747     1.9464910395
  102      C       8.3478941411     3.6529092576     0.4167636070
  103      H       7.6121637388     4.4535744104     0.2708009812
  104      H       8.5950784691     3.3770659489    -0.6160017957
  105      C       7.6438274616     2.5076813135     1.2651462252
  106      C       7.6632578670     2.8451666758     2.7163274991
  107      C       8.5313062071     2.1261722482     3.6090537126
  108      H       9.1792018017     1.3514595846     3.2081639681
  109      C       8.4567794790     2.2641815324     4.9934341532
  110      H       9.2268417873     1.8047168492     5.6057373839
  111      C       7.5216768949     3.2192917348     5.5440398728
  112      H       7.4593814055     3.4179442342     6.6097703530
  113      C       6.5829423112     3.8651135059     4.7156193146
  114      H       5.8924884911     4.5656718350     5.1758296468
  115      C       6.6634766468     3.7658503621     3.2662339107
  116      H       6.0178576861     4.3274293089     2.5977832811
  117      C       6.3131861638    -2.7830088274     2.0303217404
  118      C       4.2897674370    -1.5598867714     2.6153748080
  119      C       1.8211469894    -2.8425811684    -1.1230314260
  120      C       7.9642024552    -1.4153047256    -2.6125096905
  121      C       2.6011472013     0.1684762667    -2.7697550798
  122      C       5.7119139672    -1.6599168388     2.5713153916
  123      C       5.6801980483    -0.8052553303    -4.0504820839
  124      C       3.3811648933    -4.1260846545     0.3465974186
  125      C       3.9812279645     1.9466261121     0.5789188688
  126      C       7.5774859582    -0.1018372517    -2.7824112682
  127      C       6.3577702129     1.9875938285     0.6391400264
  128      C       4.4895866131     2.2302241849    -0.7069775568
  129      C       5.8581498880     1.3782618108    -3.0059783562
  130      C       4.3324850786    -0.7047270857    -4.1614497519
  131      C       5.0976443318     0.5648540745     2.2124042624
  132      C       2.6563519996    -2.2148338010    -3.0922291900
  133      C       7.5445883587     1.0490797087     0.7749779287
  134      C       8.1057263493     0.4169567841    -0.4574545293
  135      C       2.0249980401    -1.0930723194    -2.5734687864
  136      C       5.9660172898    -4.2802130464    -2.0952792218
  137      C       3.6756015610    -4.1604911351    -2.1162184987
  138      C       4.0550038860    -4.6036214736    -0.8217833405
  139      C       4.0833497033    -3.7848329351     1.4956425685
  140      C       8.4383588168    -0.9210347277    -0.2398508625
  141      C       5.1032576513     1.6909030080     1.3615580424
  142      C       3.4672652821    -2.6260927383     2.0792367274
  143      C       6.4822172523     0.2160630333    -3.5255935276
  144      C       3.9199248875    -0.2014002364     2.3350306931
  145      C       3.7631546886     1.8182125343    -1.8513206254
  146      C       7.8800281208    -3.1363806651    -1.1068359901
  147      C       2.2925649810    -3.2502408924     0.1762978728
  148      C       5.8688677204     2.2800422962    -0.7499982844
  149      C       6.1940860784    -4.2602280472     0.3053911486
  150      C       4.4436585564     1.4360445520    -2.9986689244
  151      C       2.8078402892     1.1239303088     0.6556585508
  152      C       4.8458374185    -2.8609125084    -3.7710310050
  153      C       6.0417020387    -2.1231017927    -3.9042269430
  154      C       2.0866475275     0.6917986403    -0.4718103940
  155      C       8.3893144782    -1.8418478365    -1.3201928785
  156      C       7.6081456855     0.8291648181    -1.7173398494
  157      C       7.1500644185    -3.5149736733    -2.2484004113
  158      C       7.3381098912    -0.2042444770     1.6448820199
  159      C       2.0199989458    -1.0097366276     0.9848734079
  160      C       6.5517194611     1.6956895941    -1.8649455566
  161      C       2.5450602093     1.0441420612    -1.7108402270
  162      C       7.3747107276    -3.5439504153     0.1321693492
  163      C       1.4515369012    -1.4893882455    -1.3444525095
  164      C       5.4971517865    -3.7869668161     1.4494136134
  165      C       2.5571734702    -3.2970065988    -2.2196934285
  166      C       2.7578699015     0.0187952473     1.5293315194
  167      C       1.5104928622    -0.5956657005    -0.2146851851
  168      C       6.1789623263    -0.3209314632     2.4073641969
  169      C       7.9341480364    -1.3071034760     1.0266405155
  170      C       4.8005292335    -3.9648448083    -2.9015790824
  171      C       2.3605851817    -2.3408295687     1.2411829824
  172      C       3.6838323400     0.4274729284    -3.6462655587
  173      C       7.2025043470    -2.4151951492    -3.1225304084
  174      C       3.7761898984    -2.0365774706    -3.9135158397
  175      C       7.4401881380    -2.6391897153     1.2421976301
  176      C       5.5024792536    -4.5963407188    -0.8423515368
 ----------------------------------------------------------------

    9   -5804.2803508759      9.95E-06 Convergence criterion met
 Total energy in the final basis set = -5804.2803508759

                    Orbital Energies (a.u.)
 --------------------------------------------------------------

 Alpha MOs
 -- Occupied --
-19.190 -19.187 -19.148 -19.140 -10.329 -10.321 -10.243 -10.243
-10.242 -10.241 -10.239 -10.236 -10.236 -10.233 -10.229 -10.229
-10.228 -10.227 -10.224 -10.224 -10.223 -10.222 -10.221 -10.221
-10.221 -10.221 -10.221 -10.220 -10.220 -10.220 -10.220 -10.220
-10.220 -10.220 -10.220 -10.220 -10.219 -10.219 -10.219 -10.219
-10.219 -10.218 -10.218 -10.218 -10.218 -10.218 -10.218 -10.218
-10.217 -10.217 -10.216 -10.216 -10.216 -10.216 -10.216 -10.216
-10.215 -10.215 -10.215 -10.215 -10.215 -10.215 -10.215 -10.215
-10.215 -10.215 -10.215 -10.215 -10.215 -10.214 -10.214 -10.214
-10.214 -10.214 -10.214 -10.214 -10.214 -10.214 -10.214 -10.214
-10.214 -10.214 -10.214 -10.214 -10.213 -10.213 -10.213 -10.213
-10.213 -10.213 -10.213 -10.213 -10.213 -10.213 -10.212 -10.212
-10.212 -10.212 -10.212 -10.212 -10.212 -10.212 -10.212 -10.212
-10.211 -10.211 -10.211 -10.211 -10.211 -10.211 -10.210 -10.210
-10.210 -10.210 -10.210 -10.210 -10.210 -10.210 -10.210 -10.210
-10.209 -10.209 -10.209 -10.209 -10.209 -10.209 -10.208 -10.208
-10.208 -10.208 -10.208 -10.207 -10.207 -10.207 -10.207 -10.207
-10.206 -10.206 -10.206 -10.204 -10.204 -10.197 -10.197 -10.196
-10.196 -10.195 -10.195 -10.195  -1.081  -1.070  -1.000  -0.999
 -0.984  -0.981  -0.966  -0.964  -0.962  -0.961  -0.960  -0.959
 -0.936  -0.931  -0.927  -0.925  -0.924  -0.924  -0.923  -0.921
 -0.919  -0.919  -0.897  -0.895  -0.890  -0.889  -0.884  -0.884
 -0.875  -0.871  -0.854  -0.844  -0.843  -0.841  -0.840  -0.837
 -0.836  -0.834  -0.827  -0.819  -0.814  -0.803  -0.798  -0.798
 -0.797  -0.794  -0.793  -0.792  -0.789  -0.789  -0.785  -0.782
 -0.772  -0.771  -0.769  -0.768  -0.765  -0.765  -0.762  -0.760
 -0.749  -0.748  -0.741  -0.736  -0.731  -0.730  -0.717  -0.715
 -0.715  -0.713  -0.713  -0.711  -0.710  -0.709  -0.709  -0.708
 -0.707  -0.706  -0.706  -0.704  -0.704  -0.697  -0.674  -0.672
 -0.659  -0.658  -0.656  -0.655  -0.645  -0.644  -0.632  -0.632
 -0.626  -0.626  -0.624  -0.624  -0.620  -0.620  -0.620  -0.617
 -0.616  -0.616  -0.614  -0.612  -0.610  -0.610  -0.607  -0.607
 -0.605  -0.605  -0.602  -0.602  -0.566  -0.564  -0.562  -0.562
 -0.560  -0.559  -0.558  -0.557  -0.555  -0.555  -0.553  -0.552
 -0.535  -0.534  -0.533  -0.532  -0.530  -0.526  -0.525  -0.524
 -0.523  -0.522  -0.521  -0.520  -0.518  -0.516  -0.513  -0.513
 -0.505  -0.505  -0.500  -0.494  -0.493  -0.491  -0.489  -0.488
 -0.485  -0.483  -0.481  -0.480  -0.479  -0.478  -0.475  -0.473
 -0.472  -0.471  -0.470  -0.469  -0.468  -0.466  -0.465  -0.465
 -0.463  -0.462  -0.462  -0.461  -0.460  -0.460  -0.459  -0.457
 -0.455  -0.452  -0.450  -0.450  -0.447  -0.446  -0.444  -0.443
 -0.443  -0.440  -0.440  -0.439  -0.436  -0.436  -0.434  -0.432
 -0.431  -0.431  -0.429  -0.429  -0.427  -0.426  -0.425  -0.423
 -0.423  -0.422  -0.422  -0.420  -0.419  -0.419  -0.419  -0.417
 -0.417  -0.416  -0.416  -0.415  -0.413  -0.413  -0.412  -0.412
 -0.412  -0.410  -0.407  -0.406  -0.403  -0.398  -0.397  -0.396
 -0.394  -0.393  -0.393  -0.392  -0.387  -0.385  -0.385  -0.384
 -0.381  -0.374  -0.374  -0.372  -0.368  -0.367  -0.366  -0.365
 -0.363  -0.363  -0.362  -0.362  -0.360  -0.359  -0.358  -0.357
 -0.357  -0.356  -0.354  -0.353  -0.353  -0.352  -0.351  -0.350
 -0.349  -0.347  -0.347  -0.347  -0.346  -0.345  -0.344  -0.344
 -0.342  -0.341  -0.339  -0.338  -0.338  -0.337  -0.335  -0.333
 -0.333  -0.331  -0.330  -0.329  -0.328  -0.327  -0.325  -0.323
 -0.310  -0.309  -0.294  -0.292  -0.288  -0.286  -0.275  -0.274
 -0.271  -0.269  -0.267  -0.267  -0.266  -0.265  -0.264  -0.263
 -0.262  -0.261  -0.260  -0.259  -0.256  -0.255  -0.255  -0.253
 -0.248  -0.246  -0.246  -0.243  -0.222  -0.218  -0.213  -0.210
 -0.209  -0.207  -0.207  -0.205  -0.201  -0.198

          Ground-State Mulliken Net Atomic Charges

     Atom                 Charge (a.u.)
  ----------------------------------------
      1 O                    -0.487421
      2 C                    -0.078976
      3 H                     0.133437
      4 H                     0.124055
      5 H                     0.126113
      6 O                    -0.477861
      7 C                     0.603813
      8 C                    -0.261685
      9 H                     0.149258
     10 H                     0.130695
     11 C                    -0.182634
     12 H                     0.114088
     13 H                     0.123776
     14 C                    -0.184999
     15 H                     0.110637
     16 H                     0.100807
     17 C                     0.006470
     18 C                     0.090981
     19 C                    -0.102357
     20 H                     0.085527
     21 C                    -0.097693
     22 H                     0.092967
     23 C                    -0.081819
     24 H                     0.091972
     25 C                    -0.087158
     26 H                     0.092893
     27 C                    -0.110176
     28 H                     0.095098
     29 C                    -0.010997
     30 C                     0.001931
     31 C                    -0.008859
     32 C                    -0.012965
     33 C                     0.007125
     34 C                    -0.006117
     35 C                    -0.024465
     36 C                     0.010138
     37 C                     0.003451
     38 C                    -0.005222
     39 C                    -0.114723
     40 C                     0.014972
     41 C                     0.006921
     42 C                     0.012425
     43 C                     0.005869
     44 C                    -0.025823
     45 C                    -0.072091
     46 C                     0.013045
     47 C                    -0.000243
     48 C                     0.031095
     49 C                     0.007465
     50 C                    -0.013128
     51 C                     0.003960
     52 C                    -0.001585
     53 C                     0.042093
     54 C                    -0.011801
     55 C                    -0.006365
     56 C                    -0.000683
     57 C                     0.009938
     58 C                     0.038118
     59 C                    -0.001143
     60 C                     0.011644
     61 C                    -0.039212
     62 C                    -0.036314
     63 C                    -0.016144
     64 C                    -0.007773
     65 C                     0.000441
     66 C                    -0.013211
     67 C                     0.008956
     68 C                     0.025851
     69 C                    -0.031627
     70 C                     0.055812
     71 C                     0.006007
     72 C                    -0.008448
     73 C                     0.003780
     74 C                    -0.007154
     75 C                    -0.003185
     76 C                     0.010674
     77 C                     0.018196
     78 C                    -0.017762
     79 C                     0.027366
     80 C                    -0.000958
     81 C                    -0.002701
     82 C                    -0.017820
     83 C                    -0.001056
     84 C                    -0.006612
     85 C                     0.005921
     86 C                     0.022020
     87 C                     0.003572
     88 C                    -0.003737
     89 O                    -0.471196
     90 C                    -0.078674
     91 H                     0.119491
     92 H                     0.124070
     93 H                     0.120153
     94 O                    -0.472748
     95 C                     0.574805
     96 C                    -0.258123
     97 H                     0.138131
     98 H                     0.134303
     99 C                    -0.178731
    100 H                     0.108497
    101 H                     0.129426
    102 C                    -0.184409
    103 H                     0.120209
    104 H                     0.121121
    105 C                     0.001886
    106 C                     0.072222
    107 C                    -0.103781
    108 H                     0.093146
    109 C                    -0.090140
    110 H                     0.095787
    111 C                    -0.086752
    112 H                     0.093491
    113 C                    -0.089190
    114 H                     0.093483
    115 C                    -0.111125
    116 H                     0.100226
    117 C                     0.017171
    118 C                    -0.011241
    119 C                    -0.002608
    120 C                     0.009463
    121 C                     0.021635
    122 C                     0.000353
    123 C                     0.050161
    124 C                     0.012985
    125 C                    -0.005512
    126 C                    -0.008884
    127 C                    -0.096433
    128 C                    -0.002570
    129 C                    -0.033601
    130 C                    -0.029619
    131 C                     0.033270
    132 C                    -0.004900
    133 C                    -0.079893
    134 C                     0.015470
    135 C                     0.010209
    136 C                     0.006133
    137 C                     0.001419
    138 C                    -0.022418
    139 C                    -0.012754
    140 C                     0.003986
    141 C                     0.043674
    142 C                    -0.020723
    143 C                     0.004947
    144 C                    -0.023765
    145 C                    -0.008727
    146 C                     0.006706
    147 C                     0.011151
    148 C                     0.031885
    149 C                     0.005096
    150 C                     0.004316
    151 C                    -0.008386
    152 C                     0.007100
    153 C                    -0.016806
    154 C                    -0.003066
    155 C                    -0.019310
    156 C                     0.009375
    157 C                    -0.018103
    158 C                     0.017246
    159 C                     0.045912
    160 C                     0.022393
    161 C                     0.002385
    162 C                     0.001914
    163 C                    -0.023701
    164 C                     0.005936
    165 C                     0.011837
    166 C                    -0.007362
    167 C                    -0.017596
    168 C                    -0.008109
    169 C                     0.019550
    170 C                    -0.007179
    171 C                    -0.005027
    172 C                    -0.026822
    173 C                     0.006142
    174 C                    -0.001975
    175 C                    -0.031845
    176 C                     0.004869
  ----------------------------------------
  Sum of atomic charges =     0.000000

                    Cartesian Multipole Moments
 -----------------------------------------------------------------
    Charge (ESU x 10^10)
                 0.0000
    Dipole Moment (Debye)
         X       0.7931      Y       4.4296      Z       2.3185
       Tot       5.0622
    Quadrupole Moments (Debye-Ang)
        XX    -795.0990     XY     -17.8732     YY    -785.7518
        XZ      30.2922     YZ      15.1953     ZZ    -799.2949

 Total job time:  833.25s(wall), 7986.57s(cpu)
        *  Thank you very much for using Q-Chem.  Have a nice day.  *
