 Q-Chem 4.4, Q-Chem, Inc., Pleasanton, CA (2016)
 Q-Chem 4.4.2 for Intel X86 Linux

User input:
--------------------------------------------------------------
$comment
SP
$end

$rem
MEM_STATIC 5000
MEM_TOTAL 20000
JOBTYPE SP
EXCHANGE B3LYP
BASIS 6-31g(d,p)
$end

$molecule
0 1
O           3.828000    -18.392000     -0.820000
C           3.898000    -19.272000     -1.868000
H           4.892000    -19.365000     -2.322000
H           3.178000    -18.918000     -2.616000
H           3.651000    -20.299000     -1.569000
O           5.240000    -16.754000     -1.662000
C           4.581000    -17.197000     -0.784000
C           4.451000    -16.560000      0.681000
H           5.332000    -15.908000      0.733000
H           4.718000    -17.270000      1.474000
C           3.169000    -15.795000      0.987000
H           3.276000    -15.030000      1.766000
H           2.938000    -15.199000      0.095000
C           1.984000    -16.792000      1.368000
H           1.548000    -17.338000      0.522000
H           2.445000    -17.582000      1.974000
C           0.782000    -16.186000      2.064000
C          -0.022000    -15.314000      1.220000
C          -1.109000    -15.800000      0.479000
H          -1.618000    -16.736000      0.690000
C          -1.772000    -14.933000     -0.450000
H          -2.637000    -15.255000     -1.022000
C          -1.254000    -13.677000     -0.700000
H          -1.822000    -12.989000     -1.319000
C          -0.161000    -13.172000      0.010000
H           0.189000    -12.147000     -0.073000
C           0.433000    -14.011000      1.012000
H           1.274000    -13.584000      1.550000
C          -1.028000    -13.608000      6.474000
C          -2.964000    -14.857000      5.808000
C          -2.749000    -17.897000      9.223000
C           3.009000    -16.560000      7.039000
C          -1.097000    -20.349000      7.415000
C          -1.811000    -14.124000      5.465000
C           2.229000    -19.099000      7.987000
C          -2.465000    -15.459000      9.244000
C          -1.776000    -18.200000      4.024000
C           2.947000    -17.638000      6.151000
C           0.103000    -17.042000      3.103000
C          -0.624000    -19.012000      4.196000
C           1.744000    -19.378000      5.603000
C           1.087000    -19.839000      8.367000
C          -2.005000    -15.832000      3.970000
C          -0.922000    -19.307000      9.544000
C           0.934000    -15.806000      3.526000
C           2.131000    -16.027000      4.383000
C          -1.728000    -19.805000      8.502000
C           1.030000    -15.695000      9.776000
C          -0.832000    -16.958000     10.335000
C          -1.249000    -15.621000      9.954000
C          -2.484000    -14.561000      8.199000
C           2.108000    -15.018000      5.379000
C          -1.372000    -16.985000      3.480000
C          -3.255000    -15.096000      7.204000
C           2.516000    -18.869000      6.619000
C          -3.042000    -15.905000      4.874000
C          -0.532000    -19.974000      5.218000
C           1.973000    -14.650000      7.770000
C          -3.248000    -16.599000      8.901000
C           0.542000    -18.313000      3.791000
C          -0.147000    -13.971000      8.560000
C           0.652000    -20.119000      5.921000
C          -2.841000    -18.365000      4.890000
C           1.251000    -18.181000      9.798000
C           2.279000    -18.032000      8.889000
C          -2.773000    -19.276000      5.919000
C           2.560000    -15.312000      6.674000
C           2.442000    -17.359000      4.839000
C           2.015000    -15.575000      8.825000
C           0.218000    -14.718000      4.143000
C          -3.763000    -17.393000      6.693000
C           1.684000    -18.437000      4.540000
C          -1.632000    -20.086000      6.134000
C           0.897000    -13.813000      7.567000
C          -2.856000    -18.932000      8.301000
C          -1.325000    -13.794000      7.862000
C          -1.569000    -18.090000      9.941000
C          -3.523000    -17.143000      5.339000
C          -3.340000    -18.697000      7.015000
C          -1.232000    -14.687000      4.290000
C           0.952000    -14.223000      5.204000
C           0.570000    -16.937000     10.225000
C          -3.669000    -16.351000      7.590000
C           0.292000    -20.308000      7.299000
C           2.689000    -16.759000      8.371000
C           0.504000    -19.321000      9.469000
C           0.320000    -13.647000      6.332000
C          -0.083000    -14.859000      9.633000
O           2.398000     -8.503000      1.903000
C           2.025000     -7.975000      0.634000
H           0.942000     -7.876000      0.490000
H           2.219000     -8.670000     -0.193000
H           2.509000     -6.998000      0.512000
O           1.002000    -10.292000      1.676000
C           1.753000     -9.641000      2.413000
C           2.239000     -9.983000      3.853000
H           3.325000     -9.951000      3.705000
H           1.867000    -11.000000      4.026000
C           1.835000     -8.924000      4.811000
H           2.139000     -9.342000      5.778000
H           2.610000     -8.160000      4.677000
C           0.407000     -8.476000      4.751000
H           0.184000     -7.902000      3.843000
H          -0.185000     -9.387000      4.598000
C          -0.036000     -7.591000      5.995000
C           1.015000     -6.587000      6.323000
C           1.819000     -6.749000      7.504000
H           1.660000     -7.617000      8.138000
C           2.680000     -5.754000      7.962000
H           3.361000     -5.987000      8.775000
C           2.821000     -4.547000      7.179000
H           3.521000     -3.762000      7.449000
C           1.978000     -4.303000      6.077000
H           2.113000     -3.377000      5.526000
C           1.098000     -5.339000      5.558000
H           0.509000     -5.217000      4.654000
C          -2.755000     -6.996000     10.749000
C          -3.191000     -4.927000      9.540000
C          -7.669000     -5.817000      8.607000
C          -3.921000    -11.050000      7.858000
C          -6.850000     -6.975000      5.386000
C          -2.327000     -6.011000      9.876000
C          -6.038000    -10.234000      6.274000
C          -6.303000     -6.196000     10.664000
C          -3.110000     -5.466000      5.510000
C          -3.705000    -10.661000      6.552000
C          -1.493000     -7.154000      5.945000
C          -3.441000     -6.642000      4.803000
C          -4.325000     -9.307000      4.826000
C          -6.948000     -9.307000      5.885000
C          -1.978000     -5.429000      7.641000
C          -8.054000     -7.627000      7.364000
C          -1.040000     -8.087000      7.055000
C          -1.704000     -9.419000      7.190000
C          -7.660000     -6.635000      6.477000
C          -6.170000     -9.727000     10.237000
C          -7.636000     -8.049000      9.693000
C          -6.786000     -7.542000     10.711000
C          -4.987000     -5.890000     10.987000
C          -1.937000     -9.741000      8.528000
C          -2.004000     -5.809000      6.282000
C          -4.527000     -4.860000     10.098000
C          -4.742000    -10.301000      5.747000
C          -3.012000     -4.616000      8.150000
C          -4.801000     -6.939000      4.540000
C          -3.805000    -10.278000     10.009000
C          -6.740000     -5.368000      9.613000
C          -2.539000     -7.669000      4.999000
C          -4.538000     -8.299000     11.292000
C          -5.225000     -8.260000      4.513000
C          -4.194000     -4.696000      6.050000
C          -7.314000     -9.783000      8.054000
C          -6.287000    -10.621000      7.569000
C          -5.549000     -4.989000      5.813000
C          -3.035000    -10.575000      8.869000
C          -2.624000     -9.822000      6.192000
C          -5.151000    -10.565000      9.717000
C          -1.190000     -7.569000      8.497000
C          -5.443000     -4.259000      7.929000
C          -3.030000     -9.004000      5.165000
C          -5.854000     -6.086000      5.056000
C          -3.555000     -9.156000     10.806000
C          -7.456000     -5.468000      7.247000
C          -4.087000     -6.953000     11.234000
C          -8.057000     -7.157000      8.676000
C          -4.174000     -4.265000      7.392000
C          -6.333000     -4.613000      6.953000
C          -1.535000     -6.237000      8.710000
C          -1.660000     -8.598000      9.318000
C          -7.293000     -9.358000      9.394000
C          -5.644000     -4.560000      9.279000
C          -6.563000     -8.303000      4.984000
C          -5.172000    -10.999000      8.380000
C          -7.744000     -8.959000      7.064000
C          -2.435000     -8.317000     10.495000
C          -5.844000     -8.611000     10.967000
$end

--------------------------------------------------------------

             Standard Nuclear Orientation (Angstroms)
    I     Atom           X                Y                Z
 ----------------------------------------------------------------
    1      O      -9.5309908599    -5.0046465021    -1.3426033872
    2      C     -10.6050923918    -5.4065015642    -2.0925516576
    3      H     -11.2217335584    -6.1855889469    -1.6282483928
    4      H     -10.1976392728    -5.7707956546    -3.0435993807
    5      H     -11.3142445043    -4.5894812677    -2.2788850050
    6      O      -8.9220282600    -7.0759184370    -0.4912814015
    7      C      -8.7971675881    -5.8994093708    -0.5319044206
    8      C      -7.7975410029    -5.0475217426     0.3867512053
    9      H      -7.5844865941    -5.7419075341     1.2091897693
   10      H      -8.3133690803    -4.2635543326     0.9555697129
   11      C      -6.5167030896    -4.5477530775    -0.2705695089
   12      H      -5.6882760733    -4.3781771111     0.4283351129
   13      H      -6.1414072208    -5.3697845528    -0.8931915969
   14      C      -6.7868448598    -3.2248962044    -1.1193734422
   15      H      -7.3058189229    -3.3842839928    -2.0728877079
   16      H      -7.5030839027    -2.6371046067    -0.5317003433
   17      C      -5.5730975150    -2.4024354729    -1.5025597260
   18      C      -4.7063447417    -3.0362137904    -2.4855147984
   19      C      -4.8737278693    -2.8271123230    -3.8621430943
   20      H      -5.4181675335    -1.9890056854    -4.2874203171
   21      C      -4.0928431303    -3.5904222898    -4.7905158206
   22      H      -4.1650723493    -3.4409195048    -5.8636070828
   23      C      -3.2846145743    -4.6097992256    -4.3257607626
   24      H      -2.6158575984    -5.1076434266    -5.0214936559
   25      C      -3.1115242698    -4.8535425452    -2.9603293507
   26      H      -2.3892356773    -5.5603809148    -2.5619668169
   27      C      -3.8197859912    -4.0154516117    -2.0347322887
   28      H      -3.6554403805    -4.2269152159    -0.9824359121
   29      C      -1.3988675015     0.5507651833     0.2931834846
   30      C      -1.8550782257     1.5838199933    -1.8225486664
   31      C      -3.6715199265     5.4093372453    -0.0858830965
   32      C      -5.4948203193     0.3581615168     3.2115687131
   33      C      -6.9740468544     4.3986066185    -0.3722595804
   34      C      -1.7907592666     0.4268451375    -1.0215372716
   35      C      -7.1215444158     2.6152744463     2.7502283432
   36      C      -1.6664373175     4.1580084560     0.5765072659
   37      C      -5.7317600992     1.2301209489    -2.6073312078
   38      C      -6.6430752908     0.2307842956     2.4243218879
   39      C      -5.7555763393    -0.9060654941    -1.5321631894
   40      C      -6.8713061070     1.1690657968    -1.7625003580
   41      C      -7.7997778716     1.2194454525     0.8559784126
   42      C      -7.1866269759     3.7974544980     1.9792688204
   43      C      -3.5937146738     0.2068196495    -2.3966247539
   44      C      -5.5720328857     5.4046913638     1.2621150146
   45      C      -4.9150764047    -1.5718975788    -0.4152865199
   46      C      -5.3766592191    -1.4220223768     0.9920434803
   47      C      -5.9475328238     5.2593075694    -0.0874283707
   48      C      -3.1859494192     2.9498340687     3.5404813924
   49      C      -3.3573152160     4.8586799137     2.2360139518
   50      C      -2.1240303923     4.1626260397     1.9179942229
   51      C      -1.1581194833     2.9794062742     0.0752090747
   52      C      -4.2240065934    -1.1412872497     1.7687066716
   53      C      -4.9903115802     0.0681798764    -2.4188529922
   54      C      -1.5677714964     2.8687514797    -1.2250338813
   55      C      -7.4075081026     1.3571621617     2.1653597690
   56      C      -2.9829143815     1.4163918119    -2.6451648647
   57      C      -7.4718051460     2.3245438352    -1.2308393695
   58      C      -3.2081409788     0.5219997558     3.2081591336
   59      C      -2.4221416580     4.8150732242    -0.4371568008
   60      C      -6.8585347611    -0.0243740942    -0.9958712956
   61      C      -1.5231553008     1.8294863437     2.1928547026
   62      C      -7.9031649224     2.3317847750     0.0848225598
   63      C      -5.1993769567     2.4678679313    -2.9170998261
   64      C      -5.4317288874     4.0079844786     3.2829677220
   65      C      -5.9740958735     2.7639627036     3.5349873157
   66      C      -5.7436953951     3.6166738851    -2.3904611281
   67      C      -4.3212268983    -0.2692302033     2.8631607456
   68      C      -6.5413420551    -0.6209595472     1.2761090266
   69      C      -3.7468243920     1.7092273488     3.7284713693
   70      C      -3.5063557412    -1.2686842331    -0.3896592063
   71      C      -3.4881371811     3.8022742553    -2.3368454051
   72      C      -7.2418333548     0.0277123835     0.3197693038
   73      C      -6.8654103878     3.5918634761    -1.5271269409
   74      C      -2.0868550876     0.5113762108     2.4068108382
   75      C      -4.7727629869     5.2589595430    -0.9209928309
   76      C      -1.0651606078     1.8082011807     0.8905472109
   77      C      -4.1388945253     5.4518295400     1.2274821952
   78      C      -3.7333884556     2.5682625974    -2.9455185855
   79      C      -4.7110470660     4.4365117929    -2.0448468443
   80      C      -2.8356540508    -0.4646655813    -1.4039487360
   81      C      -3.0983636955    -1.0726275335     0.9159465003
   82      C      -3.9529342032     4.0814495793     3.2456158681
   83      C      -2.3820851992     3.9372961836    -1.5259033035
   84      C      -7.5484789804     3.6140515528     0.6272198248
   85      C      -5.1778063589     1.5914729075     3.7544040127
   86      C      -6.1986928751     4.6577781705     2.3055300516
   87      C      -2.0326619382    -0.1959330950     1.2310189143
   88      C      -2.0340507014     3.0021352680     2.7476964730
   89      O       0.3842715717    -6.8666453627     0.9967300980
   90      C       0.6587910078    -7.8664004726     0.0203066245
   91      H       1.1576978564    -7.4885762821    -0.8806744172
   92      H      -0.2471461117    -8.2511644786    -0.4653111213
   93      H       1.2730873946    -8.6454483251     0.4887011085
   94      O      -0.6486337642    -5.5235665339    -0.5297402839
   95      C      -0.1989275589    -5.6475023311     0.6162855653
   96      C      -0.3132103340    -4.6626954271     1.8178906624
   97      H      -0.7777198706    -5.3184398129     2.5639162590
   98      H      -0.9952916264    -3.8822611783     1.4597154347
   99      C       1.0315254928    -4.2467023043     2.2880994224
  100      H       0.8004977726    -3.4873045733     3.0445188025
  101      H       1.3362780682    -5.0785127556     2.9342373650
  102      C       1.9998964872    -3.7993776099     1.2366022825
  103      H       2.3484643955    -4.6269745430     0.6063224006
  104      H       1.4143530397    -3.2012851165     0.5272235117
  105      C       3.2862823972    -3.0723871817     1.8228669052
  106      C       3.8081160626    -3.8087961183     3.0084437705
  107      C       3.6483207529    -3.2543587299     4.3254424954
  108      H       3.1302642828    -2.3063293698     4.4417129825
  109      C       4.2763300614    -3.7975121288     5.4442359051
  110      H       4.0076408710    -3.4220570983     6.4270169789
  111      C       5.0564954071    -5.0036996102     5.2821470620
  112      H       5.5188786037    -5.5098753116     6.1242355008
  113      C       5.3249229339    -5.5185852101     3.9986251565
  114      H       5.9255810638    -6.4203449120     3.9255412938
  115      C       4.6528920202    -4.9922570980     2.8203169754
  116      H       4.7624526218    -5.4286592792     1.8321011028
  117      C       6.2088973302     1.4973687717     2.7836761892
  118      C       7.8643756056    -0.1400848009     2.0690605742
  119      C       8.7081917456     1.7736925954    -2.0951324328
  120      C       2.3995712068     1.8064349994    -0.6142445798
  121      C       6.4988055900    -0.4724560231    -3.6635696165
  122      C       6.6524925639     0.1868815332     2.7464677704
  123      C       3.5669495684     1.2941885294    -3.0701420359
  124      C       8.3600721426     2.8009974873     0.1552682873
  125      C       6.2838208692    -2.9094017282    -0.4549664624
  126      C       2.2979176145     0.5553489879    -1.1870127170
  127      C       4.2598628434    -2.5983877254     0.7533887006
  128      C       5.2110092478    -2.7259849471    -1.3537542624
  129      C       3.2706207609    -1.0434506332    -2.4887347920
  130      C       4.6474398584     1.0231886915    -3.8433495249
  131      C       6.4144205961    -1.9053119174     1.7356273756
  132      C       6.9636928932     1.8806188067    -3.4788464710
  133      C       3.5576252305    -1.5679646334     1.6210802279
  134      C       2.7134586297    -0.5269793820     0.9599618903
  135      C       7.4237948528     0.5731854652    -3.5495093620
  136      C       5.1230341758     4.0537436384    -0.6322539550
  137      C       7.0461890250     3.5928755344    -1.7940852752
  138      C       7.4047425266     3.6948191601    -0.4240780184
  139      C       8.1637626340     2.2540931651     1.4170841373
  140      C       2.8889646821     0.7250868983     1.5513540235
  141      C       5.7314430272    -2.7213811878     0.8085191909
  142      C       8.6288272536     0.8952987314     1.4024695310
  143      C       2.8274685503     0.3012983470    -2.4150306640
  144      C       7.6879068253    -1.3990712663     1.4022218758
  145      C       5.4495363436    -2.1173558908    -2.6105969321
  146      C       3.5975230124     2.9825650853     0.9407057385
  147      C       8.9802190337     1.8549310503    -0.6823056678
  148      C       3.9953319093    -2.5474759892    -0.7236652524
  149      C       5.9655710583     3.3742255735     1.5227448387
  150      C       4.4715247151    -1.3186784160    -3.1860563537
  151      C       7.5490928774    -2.3358809284    -0.8151284224
  152      C       4.9670146313     3.0258778430    -2.8675415894
  153      C       3.6811525332     2.5523696890    -2.5290941151
  154      C       7.7959689783    -1.7123300647    -2.0513644481
  155      C       2.7134468891     1.9003877253     0.7733421531
  156      C       2.4797801700    -0.6279893410    -0.4328785046
  157      C       3.8311396288     3.5582786635    -0.3215644989
  158      C       4.4560599892    -0.6682390403     2.4891221863
  159      C       8.9522373792    -0.5377481758    -0.5331441837
  160      C       3.0847411868    -1.5668613915    -1.2336471608
  161      C       6.7675634273    -1.6151458110    -2.9471435746
  162      C       4.6812776918     2.9303034416     1.8235066874
  163      C       8.5585891034     0.5026620367    -2.7106568989
  164      C       6.9312958340     2.4879348288     2.0707825869
  165      C       7.7243616036     2.6345039325    -2.5870542697
  166      C       8.2743245286    -1.5530348201     0.1059123058
  167      C       8.7545068728    -0.6598468743    -1.8807296372
  168      C       5.8139636944    -0.9581286090     2.5924641684
  169      C       3.9778333343     0.6447208891     2.4542296310
  170      C       5.6860820703     3.8095317603    -1.9480338101
  171      C       9.1358582334     0.6978115207     0.0938945859
  172      C       5.1179707455    -0.2957399483    -3.9274323858
  173      C       3.1050569560     2.7810058933    -1.2408125574
  174      C       5.5970946090     2.1233276076    -3.6627637559
  175      C       4.8599972909     1.7640980836     2.6377955599
  176      C       6.1519647192     3.9175326974     0.2662895978
 ----------------------------------------------------------------

    9   -5804.2820333313      7.99E-06 Convergence criterion met
 Total energy in the final basis set = -5804.2820333313

                    Orbital Energies (a.u.)
 --------------------------------------------------------------

 Alpha MOs
 -- Occupied --
-19.194 -19.187 -19.155 -19.149 -10.329 -10.328 -10.246 -10.243
-10.243 -10.242 -10.239 -10.233 -10.233 -10.232 -10.229 -10.228
-10.226 -10.226 -10.225 -10.224 -10.224 -10.223 -10.222 -10.222
-10.222 -10.221 -10.221 -10.221 -10.221 -10.220 -10.220 -10.220
-10.220 -10.219 -10.219 -10.219 -10.219 -10.219 -10.219 -10.218
-10.218 -10.218 -10.218 -10.218 -10.218 -10.218 -10.218 -10.217
-10.217 -10.217 -10.217 -10.216 -10.216 -10.216 -10.216 -10.216
-10.215 -10.215 -10.215 -10.215 -10.215 -10.215 -10.215 -10.215
-10.215 -10.215 -10.215 -10.214 -10.214 -10.214 -10.214 -10.214
-10.214 -10.214 -10.214 -10.214 -10.214 -10.214 -10.214 -10.214
-10.213 -10.213 -10.213 -10.213 -10.213 -10.213 -10.212 -10.212
-10.212 -10.212 -10.212 -10.212 -10.212 -10.211 -10.211 -10.211
-10.211 -10.211 -10.211 -10.211 -10.211 -10.210 -10.210 -10.210
-10.210 -10.210 -10.210 -10.210 -10.210 -10.210 -10.210 -10.210
-10.210 -10.210 -10.210 -10.209 -10.209 -10.209 -10.209 -10.209
-10.209 -10.208 -10.208 -10.208 -10.208 -10.207 -10.207 -10.207
-10.207 -10.207 -10.207 -10.206 -10.206 -10.206 -10.206 -10.205
-10.205 -10.205 -10.204 -10.204 -10.203 -10.201 -10.198 -10.198
-10.194 -10.194 -10.192 -10.189  -1.101  -1.088  -1.037  -1.008
 -0.983  -0.981  -0.964  -0.964  -0.962  -0.961  -0.961  -0.960
 -0.932  -0.931  -0.928  -0.926  -0.925  -0.924  -0.923  -0.921
 -0.919  -0.919  -0.898  -0.895  -0.890  -0.889  -0.884  -0.882
 -0.875  -0.871  -0.847  -0.844  -0.841  -0.841  -0.839  -0.837
 -0.836  -0.836  -0.829  -0.820  -0.815  -0.800  -0.799  -0.798
 -0.796  -0.795  -0.794  -0.792  -0.790  -0.789  -0.783  -0.781
 -0.771  -0.770  -0.768  -0.768  -0.767  -0.765  -0.763  -0.761
 -0.749  -0.739  -0.739  -0.738  -0.731  -0.730  -0.717  -0.715
 -0.715  -0.713  -0.712  -0.711  -0.710  -0.709  -0.709  -0.708
 -0.707  -0.706  -0.705  -0.704  -0.704  -0.702  -0.672  -0.671
 -0.658  -0.658  -0.656  -0.655  -0.646  -0.646  -0.632  -0.632
 -0.628  -0.627  -0.625  -0.622  -0.622  -0.621  -0.621  -0.616
 -0.616  -0.615  -0.614  -0.611  -0.611  -0.610  -0.608  -0.608
 -0.605  -0.604  -0.602  -0.602  -0.570  -0.569  -0.563  -0.562
 -0.560  -0.560  -0.559  -0.558  -0.555  -0.554  -0.553  -0.552
 -0.534  -0.534  -0.533  -0.531  -0.530  -0.526  -0.525  -0.524
 -0.523  -0.522  -0.520  -0.519  -0.517  -0.516  -0.513  -0.510
 -0.506  -0.503  -0.502  -0.496  -0.495  -0.491  -0.488  -0.486
 -0.484  -0.483  -0.482  -0.481  -0.479  -0.478  -0.477  -0.475
 -0.473  -0.472  -0.469  -0.469  -0.469  -0.466  -0.465  -0.465
 -0.464  -0.464  -0.463  -0.462  -0.462  -0.460  -0.460  -0.457
 -0.454  -0.454  -0.451  -0.450  -0.449  -0.446  -0.444  -0.443
 -0.442  -0.441  -0.439  -0.439  -0.437  -0.436  -0.435  -0.433
 -0.432  -0.431  -0.429  -0.429  -0.427  -0.426  -0.423  -0.423
 -0.422  -0.421  -0.420  -0.420  -0.419  -0.418  -0.418  -0.417
 -0.416  -0.416  -0.415  -0.415  -0.414  -0.413  -0.413  -0.412
 -0.411  -0.411  -0.411  -0.408  -0.404  -0.403  -0.399  -0.398
 -0.395  -0.393  -0.393  -0.390  -0.389  -0.389  -0.385  -0.385
 -0.383  -0.378  -0.375  -0.373  -0.372  -0.369  -0.367  -0.365
 -0.365  -0.364  -0.363  -0.361  -0.361  -0.359  -0.359  -0.357
 -0.357  -0.356  -0.354  -0.353  -0.353  -0.352  -0.352  -0.351
 -0.350  -0.349  -0.349  -0.346  -0.346  -0.345  -0.344  -0.343
 -0.342  -0.340  -0.339  -0.339  -0.337  -0.336  -0.334  -0.333
 -0.332  -0.331  -0.330  -0.329  -0.327  -0.327  -0.326  -0.325
 -0.310  -0.309  -0.299  -0.297  -0.288  -0.283  -0.281  -0.275
 -0.272  -0.272  -0.269  -0.266  -0.266  -0.264  -0.263  -0.263
 -0.262  -0.261  -0.260  -0.258  -0.256  -0.256  -0.255  -0.247
 -0.247  -0.247  -0.244  -0.242  -0.222  -0.221  -0.211  -0.210
 -0.207  -0.207  -0.206  -0.204  -0.201  -0.197

          Ground-State Mulliken Net Atomic Charges

     Atom                 Charge (a.u.)
  ----------------------------------------
      1 O                    -0.456533
      2 C                    -0.081827
      3 H                     0.117745
      4 H                     0.114054
      5 H                     0.117138
      6 O                    -0.414852
      7 C                     0.572353
      8 C                    -0.252553
      9 H                     0.123499
     10 H                     0.123995
     11 C                    -0.193655
     12 H                     0.110236
     13 H                     0.123061
     14 C                    -0.165748
     15 H                     0.121280
     16 H                     0.106915
     17 C                     0.014395
     18 C                     0.102174
     19 C                    -0.120217
     20 H                     0.092082
     21 C                    -0.089628
     22 H                     0.089958
     23 C                    -0.081331
     24 H                     0.085710
     25 C                    -0.097130
     26 H                     0.120007
     27 C                    -0.110741
     28 H                     0.090962
     29 C                     0.010584
     30 C                    -0.020997
     31 C                     0.020838
     32 C                     0.006609
     33 C                     0.006437
     34 C                    -0.011429
     35 C                    -0.018106
     36 C                    -0.015669
     37 C                     0.023340
     38 C                    -0.044129
     39 C                    -0.118566
     40 C                    -0.003355
     41 C                    -0.015648
     42 C                    -0.001561
     43 C                     0.019332
     44 C                    -0.006992
     45 C                    -0.088523
     46 C                     0.012591
     47 C                    -0.019376
     48 C                     0.008222
     49 C                    -0.005122
     50 C                    -0.012236
     51 C                     0.007518
     52 C                    -0.017158
     53 C                     0.030241
     54 C                     0.018530
     55 C                     0.038965
     56 C                     0.013963
     57 C                    -0.023738
     58 C                     0.002569
     59 C                    -0.034656
     60 C                     0.036552
     61 C                     0.001514
     62 C                     0.003565
     63 C                    -0.032978
     64 C                    -0.009952
     65 C                     0.005902
     66 C                     0.030171
     67 C                     0.009470
     68 C                     0.005333
     69 C                     0.004677
     70 C                     0.059102
     71 C                     0.016745
     72 C                     0.015660
     73 C                    -0.018972
     74 C                    -0.034956
     75 C                    -0.001083
     76 C                    -0.008756
     77 C                     0.006485
     78 C                    -0.039944
     79 C                     0.007031
     80 C                    -0.013825
     81 C                    -0.004467
     82 C                    -0.014749
     83 C                     0.014233
     84 C                     0.008950
     85 C                    -0.009876
     86 C                     0.010975
     87 C                     0.020855
     88 C                     0.000544
     89 O                    -0.467866
     90 C                    -0.080074
     91 H                     0.120331
     92 H                     0.123105
     93 H                     0.123535
     94 O                    -0.477203
     95 C                     0.577692
     96 C                    -0.259689
     97 H                     0.138819
     98 H                     0.134637
     99 C                    -0.179142
    100 H                     0.111396
    101 H                     0.129702
    102 C                    -0.184659
    103 H                     0.118665
    104 H                     0.122584
    105 C                     0.001684
    106 C                     0.072076
    107 C                    -0.104669
    108 H                     0.094175
    109 C                    -0.090014
    110 H                     0.096242
    111 C                    -0.086982
    112 H                     0.093693
    113 C                    -0.089359
    114 H                     0.093397
    115 C                    -0.110898
    116 H                     0.099707
    117 C                     0.016651
    118 C                    -0.011134
    119 C                    -0.007319
    120 C                     0.014121
    121 C                     0.021184
    122 C                    -0.000041
    123 C                     0.050099
    124 C                     0.014658
    125 C                    -0.005624
    126 C                    -0.006357
    127 C                    -0.095878
    128 C                    -0.003640
    129 C                    -0.033498
    130 C                    -0.029872
    131 C                     0.033939
    132 C                    -0.005475
    133 C                    -0.079737
    134 C                     0.015201
    135 C                     0.016541
    136 C                     0.006395
    137 C                     0.001059
    138 C                    -0.023413
    139 C                    -0.013633
    140 C                     0.005017
    141 C                     0.042206
    142 C                    -0.020188
    143 C                     0.003724
    144 C                    -0.023914
    145 C                    -0.007728
    146 C                     0.005012
    147 C                     0.010561
    148 C                     0.030104
    149 C                     0.005888
    150 C                     0.004378
    151 C                    -0.007376
    152 C                     0.007014
    153 C                    -0.015154
    154 C                    -0.001266
    155 C                    -0.014281
    156 C                     0.011201
    157 C                    -0.016384
    158 C                     0.017575
    159 C                     0.046574
    160 C                     0.022266
    161 C                     0.002446
    162 C                     0.002143
    163 C                    -0.027644
    164 C                     0.006079
    165 C                     0.014541
    166 C                    -0.005123
    167 C                    -0.027487
    168 C                    -0.008573
    169 C                     0.018303
    170 C                    -0.007725
    171 C                    -0.005352
    172 C                    -0.026223
    173 C                     0.001738
    174 C                    -0.002544
    175 C                    -0.031075
    176 C                     0.004122
  ----------------------------------------
  Sum of atomic charges =     0.000000

                    Cartesian Multipole Moments
 -----------------------------------------------------------------
    Charge (ESU x 10^10)
                 0.0000
    Dipole Moment (Debye)
         X      -0.5139      Y      -3.8296      Z       1.1732
       Tot       4.0381
    Quadrupole Moments (Debye-Ang)
        XX    -807.7892     XY     -18.1316     YY    -804.9120
        XZ      15.0348     YZ      -7.0279     ZZ    -792.9988

 Total job time:  839.04s(wall), 8050.29s(cpu)
        *  Thank you very much for using Q-Chem.  Have a nice day.  *
