 Q-Chem 4.4, Q-Chem, Inc., Pleasanton, CA (2016)
 Q-Chem 4.4.2 for Intel X86 Linux

User input:
--------------------------------------------------------------
$comment
SP
$end

$rem
MEM_STATIC 5000
MEM_TOTAL 20000
JOBTYPE SP
EXCHANGE B3LYP
BASIS 6-31g(d,p)
$end

$molecule
0 1
O         -18.601000     -5.245000     11.675000
C         -19.736000     -4.450000     11.987000
H         -19.880000     -3.847000     11.083000
H         -19.639000     -3.822000     12.881000
H         -20.651000     -5.032000     12.158000
O         -19.037000     -7.057000     13.093000
C         -18.262000     -6.356000     12.449000
C         -16.802000     -6.776000     12.244000
H         -16.422000     -7.456000     13.016000
H         -16.244000     -5.842000     12.380000
C         -16.494000     -7.347000     10.905000
H         -16.891000     -6.679000     10.130000
H         -15.401000     -7.327000     10.823000
C         -17.131000     -8.741000     10.729000
H         -16.721000     -9.518000     11.385000
H         -18.173000     -8.541000     11.010000
C         -17.088000     -9.115000      9.217000
C         -18.128000     -8.405000      8.414000
C         -17.836000     -7.309000      7.501000
H         -16.826000     -6.910000      7.497000
C         -18.833000     -6.527000      6.839000
H         -18.577000     -5.531000      6.490000
C         -20.164000     -6.903000      7.048000
H         -21.001000     -6.354000      6.627000
C         -20.402000     -8.037000      7.804000
H         -21.445000     -8.301000      7.950000
C         -19.476000     -8.734000      8.576000
H         -19.713000     -9.553000      9.249000
C         -16.644000    -13.379000      5.577000
C         -15.397000    -11.549000      4.477000
C         -11.247000    -13.377000      5.086000
C         -14.840000    -14.106000     10.303000
C         -10.664000    -11.358000      7.856000
C         -16.513000    -12.019000      5.260000
C         -12.191000    -13.432000     10.234000
C         -13.386000    -14.530000      4.526000
C         -13.834000     -9.092000      7.163000
C         -14.451000    -12.814000     10.750000
C         -15.733000     -9.522000      8.589000
C         -13.340000     -9.298000      8.467000
C         -12.974000    -11.179000     10.367000
C         -11.095000    -13.073000      9.488000
C         -15.772000     -9.992000      6.069000
C         -10.513000    -13.661000      7.208000
C         -16.774000    -10.600000      8.864000
C         -16.402000    -11.721000      9.764000
C         -10.422000    -12.355000      6.867000
C         -13.803000    -15.968000      7.656000
C         -12.011000    -15.366000      6.392000
C         -13.164000    -15.478000      5.564000
C         -14.657000    -13.914000      4.268000
C         -16.791000    -12.947000      9.206000
C         -15.195000     -9.328000      7.145000
C         -14.498000    -12.519000      3.928000
C         -13.119000    -12.524000     10.672000
C         -14.971000    -10.326000      4.938000
C         -12.067000     -9.815000      8.614000
C         -15.883000    -15.179000      8.577000
C         -12.421000    -13.448000      4.298000
C         -14.424000     -9.647000      9.288000
C         -15.535000    -15.294000      6.141000
C         -11.894000    -10.763000      9.604000
C         -13.034000     -9.405000      6.046000
C         -11.821000    -15.085000      8.744000
C         -12.624000    -14.691000      9.825000
C         -11.769000     -9.989000      6.176000
C         -16.061000    -14.150000      9.541000
C         -15.151000    -11.685000     10.406000
C         -14.593000    -15.766000      8.754000
C         -17.164000    -11.395000      7.585000
C         -12.662000    -11.038000      4.516000
C         -14.216000    -10.665000     10.184000
C         -11.284000    -10.201000      7.514000
C         -16.294000    -14.934000      7.257000
C         -10.860000    -12.110000      5.587000
C         -15.760000    -14.362000      5.043000
C         -11.124000    -14.306000      6.153000
C         -13.594000    -10.084000      4.962000
C         -11.482000    -10.930000      5.226000
C         -16.672000    -11.032000      6.264000
C         -17.173000    -12.762000      7.908000
C         -12.444000    -15.751000      7.711000
C         -13.088000    -12.292000      4.028000
C         -11.016000    -11.716000      9.099000
C         -13.949000    -15.077000      9.794000
C         -10.841000    -14.078000      8.561000
C         -16.945000    -13.732000      6.930000
C         -14.279000    -15.862000      6.348000
O           2.398000     -8.503000      1.903000
C           2.025000     -7.975000      0.634000
H           0.942000     -7.876000      0.490000
H           2.219000     -8.670000     -0.193000
H           2.509000     -6.998000      0.512000
O           1.002000    -10.292000      1.676000
C           1.753000     -9.641000      2.413000
C           2.239000     -9.983000      3.853000
H           3.325000     -9.951000      3.705000
H           1.867000    -11.000000      4.026000
C           1.835000     -8.924000      4.811000
H           2.139000     -9.342000      5.778000
H           2.610000     -8.160000      4.677000
C           0.407000     -8.476000      4.751000
H           0.184000     -7.902000      3.843000
H          -0.185000     -9.387000      4.598000
C          -0.036000     -7.591000      5.995000
C           1.015000     -6.587000      6.323000
C           1.819000     -6.749000      7.504000
H           1.660000     -7.617000      8.138000
C           2.680000     -5.754000      7.962000
H           3.361000     -5.987000      8.775000
C           2.821000     -4.547000      7.179000
H           3.521000     -3.762000      7.449000
C           1.978000     -4.303000      6.077000
H           2.113000     -3.377000      5.526000
C           1.098000     -5.339000      5.558000
H           0.509000     -5.217000      4.654000
C          -2.755000     -6.996000     10.749000
C          -3.191000     -4.927000      9.540000
C          -7.669000     -5.817000      8.607000
C          -3.921000    -11.050000      7.858000
C          -6.850000     -6.975000      5.386000
C          -2.327000     -6.011000      9.876000
C          -6.038000    -10.234000      6.274000
C          -6.303000     -6.196000     10.664000
C          -3.110000     -5.466000      5.510000
C          -3.705000    -10.661000      6.552000
C          -1.493000     -7.154000      5.945000
C          -3.441000     -6.642000      4.803000
C          -4.325000     -9.307000      4.826000
C          -6.948000     -9.307000      5.885000
C          -1.978000     -5.429000      7.641000
C          -8.054000     -7.627000      7.364000
C          -1.040000     -8.087000      7.055000
C          -1.704000     -9.419000      7.190000
C          -7.660000     -6.635000      6.477000
C          -6.170000     -9.727000     10.237000
C          -7.636000     -8.049000      9.693000
C          -6.786000     -7.542000     10.711000
C          -4.987000     -5.890000     10.987000
C          -1.937000     -9.741000      8.528000
C          -2.004000     -5.809000      6.282000
C          -4.527000     -4.860000     10.098000
C          -4.742000    -10.301000      5.747000
C          -3.012000     -4.616000      8.150000
C          -4.801000     -6.939000      4.540000
C          -3.805000    -10.278000     10.009000
C          -6.740000     -5.368000      9.613000
C          -2.539000     -7.669000      4.999000
C          -4.538000     -8.299000     11.292000
C          -5.225000     -8.260000      4.513000
C          -4.194000     -4.696000      6.050000
C          -7.314000     -9.783000      8.054000
C          -6.287000    -10.621000      7.569000
C          -5.549000     -4.989000      5.813000
C          -3.035000    -10.575000      8.869000
C          -2.624000     -9.822000      6.192000
C          -5.151000    -10.565000      9.717000
C          -1.190000     -7.569000      8.497000
C          -5.443000     -4.259000      7.929000
C          -3.030000     -9.004000      5.165000
C          -5.854000     -6.086000      5.056000
C          -3.555000     -9.156000     10.806000
C          -7.456000     -5.468000      7.247000
C          -4.087000     -6.953000     11.234000
C          -8.057000     -7.157000      8.676000
C          -4.174000     -4.265000      7.392000
C          -6.333000     -4.613000      6.953000
C          -1.535000     -6.237000      8.710000
C          -1.660000     -8.598000      9.318000
C          -7.293000     -9.358000      9.394000
C          -5.644000     -4.560000      9.279000
C          -6.563000     -8.303000      4.984000
C          -5.172000    -10.999000      8.380000
C          -7.744000     -8.959000      7.064000
C          -2.435000     -8.317000     10.495000
C          -5.844000     -8.611000     10.967000
$end

--------------------------------------------------------------

             Standard Nuclear Orientation (Angstroms)
    I     Atom           X                Y                Z
 ----------------------------------------------------------------
    1      O      -8.7272601171     7.0412260184    -0.6041281806
    2      C      -9.6735661783     8.0375878014    -0.9637975231
    3      H      -9.5613764121     8.1135767830    -2.0515475546
    4      H      -9.5413665324     9.0102975379    -0.4745245704
    5      H     -10.7132812963     7.7599185015    -0.7468131150
    6      O      -9.7446399484     6.2799527857     1.3629928996
    7      C      -8.7546410756     6.4394839222     0.6550281770
    8      C      -7.4199636765     5.7697659506     1.0016390231
    9      H      -7.3065427130     5.5277413809     2.0652854835
   10      H      -6.6793640848     6.5532366331     0.8018843374
   11      C      -7.0941379283     4.5624337846     0.1954054199
   12      H      -7.2264041918     4.7951639378    -0.8689255020
   13      H      -6.0252567355     4.3816794390     0.3584816666
   14      C      -8.0138891249     3.3787573266     0.5600268386
   15      H      -7.8801818580     2.9912352040     1.5769407835
   16      H      -9.0061791645     3.8400512170     0.4746252924
   17      C      -7.8764900524     2.2893229768    -0.5454700146
   18      C      -8.6157098673     2.6355373973    -1.7961492861
   19      C      -7.9663456690     3.0639624139    -3.0269324283
   20      H      -6.8981653433     3.2569104814    -2.9940868046
   21      C      -8.6643352407     3.5366251957    -4.1815654663
   22      H      -8.1416088015     4.1705643272    -4.8916578879
   23      C     -10.0616310207     3.5128781074    -4.1214108406
   24      H     -10.6891636459     3.8864476326    -4.9250647550
   25      C     -10.6487542922     2.9649584330    -2.9948202785
   26      H     -11.7343652667     2.9634159307    -2.9772865209
   27      C     -10.0126809458     2.6304118952    -1.8020259491
   28      H     -10.5149360196     2.3082719848    -0.8943780444
   29      C      -8.0056389854    -3.2430383854    -1.5478323798
   30      C      -6.2404114878    -2.4214748721    -3.0719433584
   31      C      -2.7399551088    -4.2614345882    -0.7705702071
   32      C      -7.0098053990    -1.7276320905     3.2302300131
   33      C      -2.0407562574    -1.2256933037     0.7736272607
   34      C      -7.5220544153    -2.2654296371    -2.4296924020
   35      C      -4.2884071194    -1.5680047493     3.4417684632
   36      C      -5.0053334036    -5.2197134774    -1.1805613680
   37      C      -4.4831148658     0.8041899212    -1.5882286877
   38      C      -6.3860680058    -0.4581110290     3.0900089782
   39      C      -6.5886839759     1.4316069181    -0.5894776503
   40      C      -4.2132380992     1.2182611406    -0.2681531005
   41      C      -4.5317531173     0.5275615749     2.3209778914
   42      C      -3.0565622125    -1.7968781797     2.8789291628
   43      C      -6.4304908983    -0.2378755692    -2.5287105333
   44      C      -2.3561872197    -3.5340554210     1.3379690395
   45      C      -7.8788048100     0.8027053335    -0.0781450480
   46      C      -7.8919979471     0.2515043257     1.3006328131
   47      C      -1.9209260875    -2.6088037366     0.4521614603
   48      C      -6.1245938924    -4.7992027028     2.0765937783
   49      C      -4.1015877175    -5.1830421221     1.1114630531
   50      C      -5.1394162169    -5.5324842393     0.2013316270
   51      C      -6.0555624160    -4.6446174558    -1.9728647110
   52      C      -8.4867900107    -1.0180534643     1.3150000974
   53      C      -5.8489740429     0.7889326564    -1.7944735043
   54      C      -5.5339753923    -3.6528818960    -2.8846286916
   55      C      -5.0238686847    -0.4413600009     3.1824233326
   56      C      -5.5988575332    -1.2088474459    -3.1595176042
   57      C      -3.1244005022     0.6709109380     0.3832050521
   58      C      -8.0577338725    -3.3646399099     2.0301028058
   59      C      -3.7932862912    -4.5527585526    -1.6705061870
   60      C      -5.4402709388     1.4918797252     0.3566839030
   61      C      -7.4532630842    -4.7449936231     0.0813432792
   62      C      -3.2999177036     0.3408544461     1.7132386698
   63      C      -3.6492240811    -0.1416922449    -2.2171890099
   64      C      -4.1380340672    -3.7809239008     3.0297177695
   65      C      -4.9514636491    -2.7839359348     3.5891400705
   66      C      -2.5817414678    -0.7534893975    -1.5505810934
   67      C      -8.1052985720    -1.9761134596     2.3293567051
   68      C      -6.7548739570     0.4281637325     2.1094600414
   69      C      -6.9725474287    -3.9587777667     2.7438034358
   70      C      -8.2860087358    -0.4649940649    -0.8825635946
   71      C      -3.4873780098    -2.3581289113    -2.6723673853
   72      C      -5.5870222986     1.0497094795     1.6471696689
   73      C      -2.3260798193    -0.3260284349    -0.2006450775
   74      C      -8.2364711271    -3.7655030233     0.6964207754
   75      C      -2.1305623778    -2.9855638411    -0.8533550847
   76      C      -7.3185389407    -4.4757670790    -1.3449173818
   77      C      -2.9685949806    -4.5292145108     0.6051756714
   78      C      -4.2168880495    -1.1877379465    -2.9474239099
   79      C      -2.4101176528    -2.0756654616    -1.8551229158
   80      C      -7.5659929998    -0.8951004006    -2.0722946062
   81      C      -8.6542889820    -1.4629628425     0.0347842016
   82      C      -4.7696091230    -4.7810955712     2.3229338006
   83      C      -4.1329192287    -3.6107875826    -2.5932548848
   84      C      -2.6150948079    -0.8508235948     1.9254627224
   85      C      -6.3161765242    -2.9385031245     3.4503965933
   86      C      -2.9345602373    -3.1571324470     2.6168340535
   87      C      -8.5429699033    -2.8155397817    -0.2931055455
   88      C      -6.4000602727    -5.3029277190     0.8041727075
   89      O      11.9499151186    -3.6774688796    -2.7555353842
   90      C      11.8679645924    -3.8172467980    -4.1704630307
   91      H      10.8640582759    -3.6510771863    -4.5803236995
   92      H      11.9926074451    -4.8546421307    -4.5064170199
   93      H      12.5785912288    -3.1171880497    -4.6271867246
   94      O      10.2116973852    -5.1144108321    -2.4169162230
   95      C      10.9991560814    -4.2950944780    -1.9274261683
   96      C      11.2129300355    -3.9267302440    -0.4289708011
   97      H      12.2858852361    -4.1296776493    -0.3294545305
   98      H      10.5947645460    -4.6510146715     0.1149827775
   99      C      10.9551397587    -2.4834118404    -0.1991074525
  100      H      11.0329849646    -2.3930402285     0.8908476364
  101      H      11.8979827059    -2.0121999818    -0.5012391476
  102      C       9.6900645816    -1.9285616736    -0.7780842128
  103      H       9.7197449535    -1.8679684701    -1.8731260107
  104      H       8.9241252964    -2.6962116183    -0.6112172784
  105      C       9.3191527342    -0.4829290126    -0.2307446375
  106      C      10.5283629149     0.3867612748    -0.1901177605
  107      C      11.1224920198     0.7316894383     1.0729959195
  108      H      10.6887218139     0.3369835860     1.9877153839
  109      C      12.1305472055     1.6866782981     1.1867105625
  110      H      12.6340785536     1.8025686149     2.1417208326
  111      C      12.6444976151     2.2968932366    -0.0188232219
  112      H      13.4708708238     3.0011417847    -0.0025044478
  113      C      12.0223781660     2.0672663950    -1.2617342826
  114      H      12.4365155512     2.5567398267    -2.1382090317
  115      C      10.9937939190     1.0492507839    -1.4124514428
  116      H      10.5640335860     0.7797425729    -2.3724995563
  117      C       6.2588264323     2.8177480922     2.9453277131
  118      C       6.4699882026     4.0280549966     0.8422095747
  119      C       2.0554867400     3.4391199184    -0.5290691389
  120      C       4.5350529080    -1.9267654558     2.1264571311
  121      C       2.9651169874     0.7070276914    -2.5526330436
  122      C       7.0084959847     3.1525595667     1.8311307651
  123      C       2.8766953498    -1.7316515732    -0.0799838453
  124      C       3.0344682279     3.9624433486     1.7089151849
  125      C       6.9110893976     1.5185623894    -2.3273106715
  126      C       4.9931290939    -2.2877060456     0.8760567558
  127      C       8.0223138112     0.0717718589    -0.8024383937
  128      C       6.4020495803     0.2078359192    -2.4508444097
  129      C       4.9220133564    -1.9208809198    -1.3727593503
  130      C       2.2634578964    -1.0099391052    -1.0504584401
  131      C       7.7528823977     2.4666233843    -0.2738942755
  132      C       1.4108498670     1.3256054398    -0.8238128425
  133      C       8.1058125387    -0.2248299155     0.6851278569
  134      C       7.1367899784    -1.1945238027     1.2801354559
  135      C       2.1310655767     1.6641468954    -1.9608036139
  136      C       2.3870377485     0.7240079970     3.0360735207
  137      C       1.4323487154     2.0855426563     1.4563367637
  138      C       2.2474299557     2.9104296622     2.2755296586
  139      C       4.3362978311     4.1980247372     2.1326628616
  140      C       6.6741341649    -0.7579709334     2.5225477025
  141      C       7.8037459156     1.4593793332    -1.2612287296
  142      C       5.1293217743     4.5584392266     0.9907191583
  143      C       4.1750165013    -2.2406287899    -0.2108974833
  144      C       6.8842945433     3.5635508135    -0.4514086534
  145      C       5.0526048703     0.0165644869    -2.8373572994
  146      C       4.5667103938    -0.1981621872     3.6255133486
  147      C       2.9346298812     4.1973068433     0.3247094765
  148      C       7.0075667461    -0.6954602135    -1.5998719903
  149      C       4.1677478409     2.2391819078     3.6267956102
  150      C       4.3373180944    -1.0600696500    -2.3326100723
  151      C       5.9804330315     2.6017524534    -2.4692050460
  152      C       1.5355308344    -0.2648135974     0.9445360887
  153      C       2.3885937691    -1.3698585671     1.1527601134
  154      C       4.6335917120     2.4263262107    -2.8342900956
  155      C       5.3782075293    -1.1377858405     2.9627247026
  156      C       6.2761373310    -1.9108231409     0.4135298487
  157      C       3.2366338882    -0.3976056315     3.2126358828
  158      C       7.9074562619     0.9669582094     1.6393206324
  159      C       4.6500098250     4.1029232301    -1.3475672297
  160      C       6.2009419706    -1.6767516992    -0.9385963355
  161      C       4.1742157005     1.1537732737    -3.0319405510
  162      C       4.9740395910     1.1237609689     3.8333476444
  163      C       2.5078509112     3.0172580798    -1.8074154323
  164      C       4.9252565159     3.2902039183     3.0436881238
  165      C       1.3588144935     2.3897608288     0.0745849691
  166      C       5.9377991653     3.6446297290    -1.5217271615
  167      C       3.8271062378     3.4351457302    -2.2117980419
  168      C       7.8610098905     2.2570225170     1.1175977014
  169      C       7.1132774857     0.5744112725     2.7205093179
  170      C       1.4926981173     0.7718052059     1.8933526226
  171      C       4.2216839475     4.5588356113    -0.0976940988
  172      C       2.9795050095    -0.6669891546    -2.2070499251
  173      C       3.2769930403    -1.4403612693     2.2706179325
  174      C       1.4341005037    -0.0034829077    -0.3841452721
  175      C       6.2887154421     1.5198653881     3.4213152480
  176      C       2.8744002108     1.9960553032     3.2063834768
 ----------------------------------------------------------------

    9   -5804.2542130799      8.74E-06 Convergence criterion met
 Total energy in the final basis set = -5804.2542130799

                    Orbital Energies (a.u.)
 --------------------------------------------------------------

 Alpha MOs
 -- Occupied --
-19.196 -19.187 -19.144 -19.140 -10.325 -10.321 -10.248 -10.245
-10.243 -10.242 -10.241 -10.240 -10.239 -10.233 -10.229 -10.228
-10.227 -10.225 -10.225 -10.224 -10.224 -10.223 -10.222 -10.221
-10.221 -10.221 -10.221 -10.221 -10.221 -10.220 -10.220 -10.220
-10.220 -10.220 -10.220 -10.220 -10.219 -10.219 -10.219 -10.218
-10.218 -10.218 -10.218 -10.218 -10.217 -10.217 -10.217 -10.217
-10.217 -10.217 -10.216 -10.216 -10.216 -10.216 -10.216 -10.216
-10.216 -10.215 -10.215 -10.215 -10.215 -10.215 -10.215 -10.215
-10.215 -10.214 -10.214 -10.214 -10.214 -10.214 -10.214 -10.214
-10.214 -10.214 -10.214 -10.214 -10.214 -10.213 -10.213 -10.213
-10.212 -10.212 -10.212 -10.212 -10.212 -10.212 -10.211 -10.211
-10.211 -10.211 -10.211 -10.211 -10.211 -10.211 -10.211 -10.211
-10.210 -10.210 -10.210 -10.210 -10.210 -10.210 -10.210 -10.210
-10.210 -10.210 -10.210 -10.209 -10.209 -10.209 -10.209 -10.209
-10.208 -10.208 -10.208 -10.208 -10.208 -10.207 -10.207 -10.207
-10.207 -10.207 -10.206 -10.206 -10.206 -10.205 -10.205 -10.204
-10.204 -10.204 -10.204 -10.203 -10.203 -10.203 -10.202 -10.202
-10.202 -10.201 -10.201 -10.200 -10.200 -10.199 -10.199 -10.199
-10.198 -10.196 -10.195 -10.194  -1.088  -1.081  -1.015  -1.000
 -0.984  -0.982  -0.964  -0.963  -0.962  -0.961  -0.960  -0.959
 -0.931  -0.927  -0.926  -0.925  -0.924  -0.924  -0.921  -0.921
 -0.920  -0.919  -0.895  -0.893  -0.889  -0.886  -0.885  -0.884
 -0.873  -0.871  -0.851  -0.843  -0.841  -0.841  -0.837  -0.837
 -0.836  -0.834  -0.827  -0.824  -0.815  -0.811  -0.798  -0.797
 -0.795  -0.795  -0.792  -0.792  -0.789  -0.788  -0.783  -0.781
 -0.771  -0.771  -0.768  -0.768  -0.765  -0.764  -0.763  -0.760
 -0.748  -0.746  -0.740  -0.736  -0.731  -0.730  -0.715  -0.713
 -0.713  -0.711  -0.711  -0.710  -0.710  -0.709  -0.709  -0.707
 -0.707  -0.706  -0.704  -0.704  -0.703  -0.703  -0.672  -0.671
 -0.658  -0.657  -0.655  -0.654  -0.647  -0.645  -0.632  -0.629
 -0.627  -0.624  -0.624  -0.622  -0.621  -0.620  -0.620  -0.616
 -0.615  -0.615  -0.613  -0.613  -0.611  -0.609  -0.608  -0.606
 -0.605  -0.605  -0.602  -0.601  -0.570  -0.565  -0.563  -0.562
 -0.560  -0.560  -0.559  -0.556  -0.555  -0.553  -0.553  -0.552
 -0.534  -0.534  -0.533  -0.530  -0.527  -0.526  -0.525  -0.522
 -0.522  -0.520  -0.520  -0.517  -0.516  -0.515  -0.514  -0.511
 -0.507  -0.505  -0.505  -0.494  -0.491  -0.490  -0.488  -0.486
 -0.484  -0.483  -0.481  -0.478  -0.478  -0.476  -0.474  -0.473
 -0.471  -0.471  -0.470  -0.468  -0.466  -0.465  -0.464  -0.464
 -0.464  -0.463  -0.462  -0.461  -0.460  -0.458  -0.458  -0.458
 -0.453  -0.453  -0.451  -0.450  -0.449  -0.447  -0.444  -0.443
 -0.440  -0.439  -0.439  -0.438  -0.437  -0.436  -0.435  -0.432
 -0.431  -0.429  -0.429  -0.427  -0.427  -0.426  -0.424  -0.423
 -0.422  -0.422  -0.421  -0.420  -0.419  -0.417  -0.417  -0.416
 -0.415  -0.415  -0.414  -0.413  -0.413  -0.413  -0.412  -0.411
 -0.411  -0.410  -0.409  -0.407  -0.403  -0.400  -0.399  -0.398
 -0.394  -0.393  -0.393  -0.389  -0.388  -0.386  -0.385  -0.385
 -0.381  -0.378  -0.374  -0.373  -0.372  -0.368  -0.366  -0.366
 -0.365  -0.363  -0.363  -0.362  -0.360  -0.360  -0.359  -0.357
 -0.357  -0.354  -0.353  -0.353  -0.352  -0.351  -0.351  -0.349
 -0.349  -0.348  -0.347  -0.346  -0.346  -0.345  -0.344  -0.343
 -0.341  -0.340  -0.339  -0.337  -0.337  -0.335  -0.334  -0.334
 -0.333  -0.331  -0.329  -0.329  -0.327  -0.327  -0.325  -0.323
 -0.309  -0.309  -0.299  -0.292  -0.288  -0.284  -0.272  -0.269
 -0.267  -0.267  -0.266  -0.266  -0.266  -0.265  -0.263  -0.262
 -0.261  -0.261  -0.259  -0.258  -0.256  -0.256  -0.255  -0.253
 -0.248  -0.247  -0.243  -0.242  -0.223  -0.218  -0.210  -0.210
 -0.208  -0.208  -0.206  -0.203  -0.201  -0.196

          Ground-State Mulliken Net Atomic Charges

     Atom                 Charge (a.u.)
  ----------------------------------------
      1 O                    -0.467733
      2 C                    -0.085075
      3 H                     0.125776
      4 H                     0.120757
      5 H                     0.130757
      6 O                    -0.455628
      7 C                     0.579086
      8 C                    -0.230034
      9 H                     0.127043
     10 H                     0.114997
     11 C                    -0.191243
     12 H                     0.123596
     13 H                     0.107867
     14 C                    -0.190260
     15 H                     0.112737
     16 H                     0.131147
     17 C                     0.009796
     18 C                     0.093066
     19 C                    -0.121264
     20 H                     0.086782
     21 C                    -0.097705
     22 H                     0.098375
     23 C                    -0.075637
     24 H                     0.093476
     25 C                    -0.091530
     26 H                     0.081557
     27 C                    -0.091236
     28 H                     0.101384
     29 C                    -0.011065
     30 C                     0.000976
     31 C                    -0.035549
     32 C                    -0.021288
     33 C                     0.008754
     34 C                    -0.006915
     35 C                     0.029483
     36 C                     0.008568
     37 C                     0.018596
     38 C                    -0.015677
     39 C                    -0.079121
     40 C                     0.005407
     41 C                    -0.011453
     42 C                    -0.001224
     43 C                     0.007692
     44 C                    -0.008380
     45 C                    -0.103744
     46 C                     0.007678
     47 C                     0.007047
     48 C                     0.051598
     49 C                    -0.009199
     50 C                    -0.019932
     51 C                    -0.002581
     52 C                     0.001603
     53 C                     0.016252
     54 C                    -0.013848
     55 C                     0.004362
     56 C                    -0.013441
     57 C                    -0.015848
     58 C                    -0.024881
     59 C                    -0.013989
     60 C                     0.027759
     61 C                    -0.005811
     62 C                    -0.016239
     63 C                    -0.007470
     64 C                    -0.012759
     65 C                    -0.014574
     66 C                    -0.004279
     67 C                    -0.014927
     68 C                     0.025109
     69 C                    -0.031864
     70 C                     0.017190
     71 C                     0.016832
     72 C                     0.008000
     73 C                    -0.008900
     74 C                     0.027576
     75 C                     0.026097
     76 C                    -0.021485
     77 C                     0.026178
     78 C                     0.001933
     79 C                    -0.014773
     80 C                     0.005897
     81 C                     0.032982
     82 C                     0.004913
     83 C                     0.016179
     84 C                     0.011259
     85 C                     0.022457
     86 C                    -0.018269
     87 C                     0.006201
     88 C                    -0.005943
     89 O                    -0.471044
     90 C                    -0.078985
     91 H                     0.119609
     92 H                     0.124262
     93 H                     0.120151
     94 O                    -0.472786
     95 C                     0.574993
     96 C                    -0.257854
     97 H                     0.138040
     98 H                     0.134335
     99 C                    -0.179013
    100 H                     0.108462
    101 H                     0.129407
    102 C                    -0.184590
    103 H                     0.120395
    104 H                     0.121203
    105 C                     0.002778
    106 C                     0.071827
    107 C                    -0.103521
    108 H                     0.093239
    109 C                    -0.090275
    110 H                     0.095794
    111 C                    -0.086833
    112 H                     0.093425
    113 C                    -0.089598
    114 H                     0.093456
    115 C                    -0.110442
    116 H                     0.100319
    117 C                     0.016701
    118 C                    -0.011239
    119 C                    -0.007425
    120 C                     0.011033
    121 C                     0.020471
    122 C                    -0.000130
    123 C                     0.049760
    124 C                     0.013566
    125 C                    -0.005921
    126 C                    -0.009407
    127 C                    -0.096132
    128 C                    -0.002993
    129 C                    -0.033905
    130 C                    -0.030123
    131 C                     0.034312
    132 C                    -0.005622
    133 C                    -0.081592
    134 C                     0.016737
    135 C                     0.017034
    136 C                     0.006131
    137 C                     0.000368
    138 C                    -0.023192
    139 C                    -0.014092
    140 C                     0.003856
    141 C                     0.042960
    142 C                    -0.020078
    143 C                     0.005413
    144 C                    -0.023765
    145 C                    -0.007758
    146 C                     0.007208
    147 C                     0.009897
    148 C                     0.032007
    149 C                     0.004933
    150 C                     0.005470
    151 C                    -0.007295
    152 C                     0.009848
    153 C                    -0.016493
    154 C                    -0.000569
    155 C                    -0.019847
    156 C                     0.009039
    157 C                    -0.017056
    158 C                     0.017703
    159 C                     0.046193
    160 C                     0.023038
    161 C                     0.002563
    162 C                     0.001111
    163 C                    -0.028616
    164 C                     0.007011
    165 C                     0.013606
    166 C                    -0.005603
    167 C                    -0.027920
    168 C                    -0.008622
    169 C                     0.019302
    170 C                    -0.007523
    171 C                    -0.005368
    172 C                    -0.025785
    173 C                     0.005603
    174 C                     0.000671
    175 C                    -0.031172
    176 C                     0.004941
  ----------------------------------------
  Sum of atomic charges =     0.000000

                    Cartesian Multipole Moments
 -----------------------------------------------------------------
    Charge (ESU x 10^10)
                 0.0000
    Dipole Moment (Debye)
         X       3.4404      Y       4.5964      Z      -1.7311
       Tot       5.9967
    Quadrupole Moments (Debye-Ang)
        XX    -741.6438     XY     -17.4420     YY    -802.9464
        XZ      18.9217     YZ     -20.7825     ZZ    -800.9837

 Total job time:  837.86s(wall), 8001.99s(cpu)
        *  Thank you very much for using Q-Chem.  Have a nice day.  *
