 Q-Chem 4.4, Q-Chem, Inc., Pleasanton, CA (2016)
 Q-Chem 4.4.2 for Intel X86 Linux

User input:
--------------------------------------------------------------
$comment
SP
$end

$rem
MEM_STATIC 5000
MEM_TOTAL 20000
JOBTYPE SP
EXCHANGE B3LYP
BASIS 6-31g(d,p)
$end

$molecule
0 1
O         -10.747000      6.368000     -1.480000
C         -11.336000      7.367000     -2.331000
H         -12.049000      7.948000     -1.732000
H         -11.897000      6.799000     -3.082000
H         -10.574000      8.031000     -2.759000
O         -12.825000      5.823000     -0.407000
C         -11.609000      5.586000     -0.654000
C         -10.789000      4.542000      0.028000
H         -10.194000      4.968000      0.845000
H         -10.162000      4.059000     -0.732000
C         -11.605000      3.425000      0.758000
H         -12.024000      3.832000      1.687000
H         -12.414000      3.130000      0.079000
C         -10.735000      2.136000      1.018000
H         -10.451000      1.716000      0.046000
H          -9.819000      2.512000      1.490000
C         -11.363000      1.120000      2.032000
C         -12.517000      0.393000      1.390000
C         -12.352000     -0.798000      0.651000
H         -11.339000     -1.187000      0.688000
C         -13.401000     -1.358000     -0.077000
H         -13.223000     -2.371000     -0.425000
C         -14.684000     -0.819000      0.029000
H         -15.496000     -1.404000     -0.393000
C         -14.876000      0.372000      0.709000
H         -15.866000      0.804000      0.818000
C         -13.814000      0.956000      1.413000
H         -14.098000      1.763000      2.083000
C         -13.663000      0.605000      6.903000
C         -12.792000     -1.640000      6.407000
C          -9.351000     -1.558000      9.360000
C          -9.885000      4.081000      6.451000
C          -6.917000     -0.717000      7.058000
C         -13.411000     -0.463000      5.975000
C          -7.529000      2.833000      7.192000
C         -11.616000     -0.737000      9.534000
C          -9.556000     -1.415000      4.021000
C          -9.063000      3.619000      5.490000
C         -10.532000      0.496000      3.104000
C          -8.532000     -0.471000      3.905000
C          -7.624000      1.921000      4.919000
C          -6.898000      1.615000      7.602000
C         -11.921000     -1.131000      4.408000
C          -7.697000     -0.009000      9.196000
C         -11.482000      1.590000      3.448000
C         -10.907000      2.810000      4.152000
C          -7.473000     -1.057000      8.244000
C         -10.729000      2.713000      9.492000
C          -9.789000      0.758000     10.193000
C         -11.159000      0.502000     10.066000
C         -12.680000     -0.778000      8.675000
C         -11.802000      3.176000      5.173000
C         -10.775000     -0.852000      3.661000
C         -12.469000     -1.875000      7.796000
C          -7.869000      2.967000      5.815000
C         -11.897000     -2.079000      5.424000
C          -7.540000     -0.484000      4.881000
C         -11.739000      3.544000      7.552000
C         -10.682000     -1.764000      9.188000
C          -9.068000      0.758000      3.404000
C         -12.812000      1.693000      8.717000
C          -6.960000      0.729000      5.319000
C          -9.552000     -2.407000      5.057000
C          -8.320000      2.368000      9.234000
C          -8.343000      3.362000      8.230000
C          -8.469000     -2.411000      5.999000
C         -11.261000      3.775000      6.314000
C          -9.553000      2.986000      4.393000
C         -10.731000      3.708000      8.503000
C         -12.590000      1.234000      4.356000
C         -10.392000     -2.954000      7.118000
C          -8.675000      1.988000      3.998000
C          -7.467000     -1.399000      5.917000
C         -12.778000      2.625000      7.638000
C          -8.455000     -2.080000      8.346000
C         -13.280000      0.446000      8.231000
C          -8.910000     -0.314000      9.819000
C         -10.703000     -2.794000      5.768000
C          -8.998000     -2.711000      7.226000
C         -12.887000     -0.108000      4.750000
C         -12.767000      2.184000      5.280000
C          -9.542000      2.084000      9.915000
C         -11.289000     -2.505000      8.110000
C          -6.610000      0.588000      6.709000
C          -9.532000      3.978000      7.830000
C          -7.450000      1.325000      8.847000
C         -13.350000      1.907000      6.554000
C         -11.716000      1.709000      9.636000
O          -8.920000     13.387000     10.210000
C         -10.298000     13.513000     10.361000
H         -10.470000     13.998000     11.330000
H         -10.701000     12.494000     10.302000
H         -10.765000     14.037000      9.518000
O          -8.460000     14.630000      8.268000
C          -8.068000     13.961000      9.215000
C          -6.600000     13.515000      9.397000
H          -6.536000     12.589000      9.982000
H          -6.136000     14.197000     10.121000
C          -5.689000     13.415000      8.179000
H          -5.541000     14.437000      7.810000
H          -4.652000     13.119000      8.380000
C          -6.238000     12.416000      7.117000
H          -5.313000     11.942000      6.766000
H          -6.733000     11.634000      7.705000
C          -7.006000     12.867000      5.898000
C          -6.483000     14.095000      5.221000
C          -7.140000     15.343000      5.394000
H          -8.090000     15.383000      5.918000
C          -6.459000     16.443000      4.835000
H          -6.826000     17.412000      5.160000
C          -5.402000     16.282000      3.907000
H          -4.924000     17.164000      3.491000
C          -4.875000     15.023000      3.626000
H          -3.985000     14.892000      3.018000
C          -5.363000     13.927000      4.352000
H          -4.953000     12.922000      4.304000
C         -12.313000     13.560000      4.346000
C         -11.105000     13.062000      2.335000
C         -12.876000      8.906000      1.728000
C         -11.318000      9.878000      7.717000
C          -9.985000      7.210000      2.954000
C         -11.152000     13.686000      3.586000
C         -11.008000      7.471000      6.412000
C         -13.901000     10.953000      2.464000
C          -7.858000     10.724000      2.879000
C         -10.049000      9.429000      7.424000
C          -7.654000     11.790000      5.009000
C          -7.620000      9.705000      3.838000
C          -8.733000      8.309000      5.962000
C         -11.024000      6.933000      5.131000
C          -8.967000     12.882000      3.208000
C         -12.456000      7.290000      3.209000
C          -8.456000     12.538000      5.964000
C          -9.196000     11.687000      7.058000
C         -11.309000      7.392000      2.414000
C         -14.222000      9.911000      5.827000
C         -14.194000      8.924000      3.752000
C         -14.481000     10.301000      3.560000
C         -13.467000     12.301000      2.607000
C         -10.562000     12.161000      7.176000
C          -7.961000     11.921000      3.585000
C         -12.270000     12.391000      1.884000
C          -9.893000      8.233000      6.770000
C          -9.803000     12.629000      2.100000
C          -8.121000      8.384000      3.594000
C         -12.868000     11.428000      7.076000
C         -13.064000     10.294000      1.592000
C          -7.586000     10.254000      5.134000
C         -13.993000     12.214000      5.083000
C          -8.685000      7.692000      4.701000
C          -8.824000     10.413000      1.838000
C         -13.082000      7.763000      5.502000
C         -12.311000      7.974000      6.656000
C          -9.306000      9.088000      1.692000
C         -11.606000     11.283000      7.588000
C          -8.969000     10.265000      7.024000
C         -13.426000     10.173000      6.930000
C          -9.618000     13.383000      5.443000
C         -10.823000     10.662000      0.926000
C          -8.128000      9.516000      6.187000
C          -8.977000      8.118000      2.567000
C         -13.138000     12.466000      6.185000
C         -11.593000      8.396000      1.501000
C         -13.474000     12.879000      3.891000
C         -13.437000      8.187000      2.776000
C          -9.739000     11.367000      1.460000
C         -10.562000      9.257000      1.147000
C          -9.816000     13.596000      4.089000
C         -10.784000     13.155000      6.198000
C         -14.071000      8.687000      5.113000
C         -12.078000     11.154000      1.203000
C          -9.839000      6.967000      4.315000
C         -12.482000      9.181000      7.351000
C         -12.345000      7.019000      4.625000
C         -12.128000     13.310000      5.702000
C         -14.544000     10.905000      4.866000
$end

--------------------------------------------------------------

             Standard Nuclear Orientation (Angstroms)
    I     Atom           X                Y                Z
 ----------------------------------------------------------------
    1      O      -0.6456286872    -6.0469495149    -2.6121769072
    2      C      -1.6402031118    -7.0559950530    -2.3636375420
    3      H      -2.1165375463    -6.8352978784    -1.3997240274
    4      H      -1.0732789204    -7.9887418232    -2.2640061026
    5      H      -2.3949817355    -7.0817790722    -3.1601100233
    6      O       0.1485158320    -6.0399692117    -0.3459633785
    7      C       0.2605020212    -5.7135381292    -1.5611735832
    8      C       1.2686059246    -4.7513148333    -2.0953204253
    9      H       0.8439910800    -3.7466496547    -2.2108198311
   10      H       1.6449768742    -5.1528814920    -3.0445870511
   11      C       2.4975825452    -4.4881211811    -1.1643045461
   12      H       2.1889790541    -3.8429639958    -0.3319662186
   13      H       2.8197100702    -5.4645038129    -0.7829152254
   14      C       3.7180922793    -3.8834705888    -1.9585177734
   15      H       4.0488858523    -4.6282902437    -2.6917703177
   16      H       3.2928523864    -3.0418708666    -2.5189612951
   17      C       4.8479417743    -3.2803335335    -1.0560202326
   18      C       5.6324695757    -4.3869528416    -0.3985106618
   19      C       6.7549727432    -4.9904836626    -1.0047813829
   20      H       7.0540432659    -4.5052402419    -1.9288780472
   21      C       7.3587323473    -6.1235176588    -0.4610044949
   22      H       8.3278751804    -6.3696833570    -0.8842321148
   23      C       6.9435766612    -6.6010631928     0.7829577309
   24      H       7.5704986556    -7.3544104828     1.2510278899
   25      C       5.8197389192    -6.0623545729     1.3867182400
   26      H       5.4851177238    -6.4063248166     2.3605345097
   27      C       5.1894498791    -4.9444405889     0.8232290649
   28      H       4.4548599211    -4.4625520902     1.4627336142
   29      C       5.8722233020     0.0125859252     3.1140390943
   30      C       7.9951243321    -0.0718659394     1.8767674592
   31      C       7.7948574858     4.1198701944     0.1572746925
   32      C       2.0528772584     1.3765880535    -0.0659385774
   33      C       6.5971244110     3.1832118264    -2.9441681304
   34      C       6.8527789967    -0.7180506082     2.3590604286
   35      C       3.1311053349     3.0834489105    -1.9583896943
   36      C       7.1908826176     3.2629805636     2.3333942938
   37      C       7.3331908508    -0.7303732777    -2.0403142545
   38      C       2.3783436043     0.8844485209    -1.2761118452
   39      C       5.4622422060    -1.9585996176    -1.3797105712
   40      C       6.2965522897    -0.3548350370    -2.8991038232
   41      C       3.9023244483     0.9991836817    -2.9920035172
   42      C       4.3117490877     3.7147849601    -2.4656175737
   43      C       7.2853681611    -1.4513906795     0.2621837144
   44      C       6.0978469703     4.7476790805    -1.2167792777
   45      C       4.4808803172    -2.0641721649    -0.2646073112
   46      C       3.2616264229    -1.1563666516    -0.3274570640
   47      C       7.0594900549     3.9832962788    -1.9555251814
   48      C       3.6800280265     3.6832945582     1.8994943212
   49      C       5.5842478399     4.7019405618     1.1691976545
   50      C       5.9523400163     3.9643362953     2.3001322661
   51      C       7.2717813519     2.0148232553     2.8876656429
   52      C       3.0418653472    -0.6453483022     0.9640487688
   53      C       6.8590180554    -1.5939977034    -1.0595783006
   54      C       8.2879043823     1.3088371412     2.1879166924
   55      C       2.9409918538     1.7041024853    -2.2599610847
   56      C       8.2898539841    -0.5501961832     0.5944377005
   57      C       6.2831259614     0.9641540447    -3.3428340745
   58      C       2.8209501392     1.5100678841     2.0149586292
   59      C       8.1069381207     3.3606182374     1.2388120904
   60      C       5.0907821370    -1.0241118145    -2.5157959390
   61      C       4.8298885246     2.0327640771     3.2899920615
   62      C       5.0535603310     1.6369676211    -3.5301926932
   63      C       8.3844554475     0.1788804068    -1.6860876533
   64      C       3.7927400350     4.5382421158    -0.3907525381
   65      C       2.7431986830     3.6489478262    -0.7135521926
   66      C       8.3518515619     1.5089013649    -2.2248364238
   67      C       2.4705716159     0.6265378869     1.0604437605
   68      C       2.9816892819    -0.3256769703    -1.4016836930
   69      C       2.6285767384     2.8168960984     1.5648991965
   70      C       4.9905813325    -1.7620836043     1.0873584341
   71      C       9.1331542609     1.6270936552    -0.0752932921
   72      C       3.8707907398    -0.2966025433    -2.4654347330
   73      C       7.2517225633     1.9058990970    -3.0415254632
   74      C       3.8321720016     1.1014009993     2.8762946394
   75      C       8.1700426627     3.6130037207    -1.1487951605
   76      C       6.0802699679     1.3673076354     3.3527851372
   77      C       6.5481477689     4.7489838565     0.1060020679
   78      C       8.9163285592     0.2853701221    -0.3876801927
   79      C       8.7746516110     2.3584124932    -1.2374454368
   80      C       6.3758772896    -1.5671462601     1.3829316790
   81      C       4.1204094742    -1.0029822303     1.7612805667
   82      C       4.2266340154     4.5875221508     0.9682943676
   83      C       8.8292311127     2.1127049729     1.2139259942
   84      C       5.2505664426     3.0323167244    -3.2324168182
   85      C       2.2111476787     2.7641077429     0.2283377988
   86      C       4.7277896752     4.5700938443    -1.4486682426
   87      C       4.5281146703    -0.1356417925     2.8201436542
   88      C       4.7747946154     3.3484913681     2.7315483697
   89      O      -7.0455617065     5.3162400512     1.7672260468
   90      C      -7.0388970171     4.8290768339     3.0711388435
   91      H      -7.4444381452     5.6229843479     3.7106834101
   92      H      -5.9939180935     4.5774352941     3.2923775940
   93      H      -7.5716300090     3.8746557039     3.1638203724
   94      O      -8.4448415493     3.8134253110     0.6219851211
   95      C      -7.7547345226     4.8242479838     0.6268652607
   96      C      -7.4302342355     5.6438145010    -0.6420217664
   97      H      -6.4784323692     6.1792353162    -0.5362164829
   98      H      -8.1035735045     6.5104348712    -0.6554144068
   99      C      -7.4887697038     4.9687456018    -2.0074156950
  100      H      -8.5411610135     4.7234291385    -2.1940741103
  101      H      -7.2739020048     5.6125766254    -2.8692158372
  102      C      -6.5141527335     3.7571505572    -2.1043961524
  103      H      -6.1473179894     3.8552652301    -3.1336229406
  104      H      -5.6556653204     4.0445271617    -1.4857629422
  105      C      -6.9713771842     2.3300671455    -1.9211893357
  106      C      -8.2813221310     1.9832878824    -2.5565084517
  107      C      -9.4526002463     1.8604199792    -1.7614656510
  108      H      -9.3748588350     1.8981483588    -0.6792416250
  109      C     -10.6418739007     1.6882816626    -2.4978341559
  110      H     -11.5519512955     1.8276637376    -1.9219810734
  111      C     -10.6343931512     1.3368522758    -3.8692551067
  112      H     -11.5798949470     1.1967482929    -4.3848724340
  113      C      -9.4474686394     1.3044057411    -4.5985893412
  114      H      -9.4347381610     1.1631455326    -5.6750690152
  115      C      -8.2687452181     1.7128642037    -3.9581139081
  116      H      -7.3091788373     1.8393102121    -4.4517461273
  117      C      -7.2871745430    -1.4447951007     2.1658498187
  118      C      -7.0266168812    -2.6988598811     0.1383340404
  119      C      -2.7765272402    -4.1094600556     0.9893165263
  120      C      -3.5022401176     1.9509449146     2.3982527980
  121      C      -1.2697968846    -1.7353159954    -1.2085407523
  122      C      -7.5635909350    -1.5946936261     0.8084547361
  123      C      -1.2196636251     0.8886528979     1.2783625235
  124      C      -4.6737524320    -3.8839888758     2.4495320305
  125      C      -4.9564654671    -0.7820193243    -2.7505038579
  126      C      -3.1871336228     2.2569064854     1.0925321487
  127      C      -5.8994910331     1.2266142472    -1.8611411885
  128      C      -3.9040109590     0.1640823315    -2.6413380882
  129      C      -2.2831462636     1.5310398781    -0.8515934961
  130      C      -0.7644804114    -0.2693783082     0.6599508745
  131      C      -6.9823151579    -0.9556116900    -1.3863613723
  132      C      -1.1137728824    -2.6253231923     1.1068014903
  133      C      -6.5114080474     1.7271181460    -0.6405731180
  134      C      -5.5305693108     2.3535604841     0.4149657821
  135      C      -1.3673031302    -2.8131534579    -0.2564593816
  136      C      -3.3967308128    -1.0481384372     4.1305264011
  137      C      -2.5493561346    -2.9014233943     3.0685146203
  138      C      -3.9048084651    -3.1800880776     3.3854641019
  139      C      -6.0432094561    -3.5380668228     2.2739347862
  140      C      -5.8729832477     1.8480792510     1.7309435246
  141      C      -6.0925257111    -0.1797425681    -2.2133969496
  142      C      -6.2846966615    -3.6392684401     0.8973156804
  143      C      -2.0534843506     1.7249981054     0.5318354366
  144      C      -6.7266764748    -2.3259907048    -1.1689235203
  145      C      -2.5618324351    -0.3017738340    -2.4486911495
  146      C      -4.9459126748     0.7030387701     3.6530120588
  147      C      -4.1481625644    -4.2932027760     1.2447360831
  148      C      -4.3707781099     1.3438141489    -2.0309822363
  149      C      -5.7533997209    -1.5702325869     3.8418824056
  150      C      -1.7538518380     0.4185252777    -1.5263324642
  151      C      -4.6273907932    -2.1524643443    -2.3939252466
  152      C      -1.3833211917    -0.8567831281     2.7417521777
  153      C      -1.5885286737     0.5244949659     2.5980903653
  154      C      -3.2767241899    -2.5224162905    -2.1746074771
  155      C      -4.8814516362     1.7284487497     2.7473674551
  156      C      -4.1393532063     2.4028484186     0.0450232862
  157      C      -3.6580802544     0.2998212683     3.9473049458
  158      C      -7.2811454760     0.7503592499     0.2477716067
  159      C      -4.7550909486    -3.8664306853    -1.0026100227
  160      C      -3.5224410514     2.0251819874    -1.1573237768
  161      C      -2.2863715920    -1.6092065779    -2.1785764624
  162      C      -6.0101110387    -0.1966174366     3.6047880818
  163      C      -2.3978526337    -3.7393146955    -0.3057958066
  164      C      -6.5359221420    -2.3871217684     2.9184103023
  165      C      -1.9457060649    -3.4408417154     1.8796376426
  166      C      -5.5183657315    -2.8881424425    -1.6488303565
  167      C      -3.3676623883    -3.5741388321    -1.2865016615
  168      C      -7.5609423155    -0.5429107159    -0.1609526575
  169      C      -6.9032093850     0.8918749980     1.5963644304
  170      C      -2.2385998044    -1.6362570654     3.5443335603
  171      C      -5.1151963742    -4.1796179559     0.2881478229
  172      C      -0.9551186461    -0.4598350928    -0.7537747979
  173      C      -2.7291869392     1.0863437809     3.1916723988
  174      C      -0.7646745937    -1.3171102666     1.6142729928
  175      C      -6.9693173848    -0.1562301083     2.5830165568
  176      C      -4.4170019213    -2.0344579898     4.0922954576
 ----------------------------------------------------------------

    9   -5804.2659809689      9.56E-06 Convergence criterion met
 Total energy in the final basis set = -5804.2659809689

                    Orbital Energies (a.u.)
 --------------------------------------------------------------

 Alpha MOs
 -- Occupied --
-19.187 -19.185 -19.154 -19.145 -10.337 -10.326 -10.242 -10.240
-10.238 -10.235 -10.235 -10.234 -10.233 -10.231 -10.230 -10.230
-10.229 -10.226 -10.226 -10.225 -10.224 -10.222 -10.222 -10.221
-10.220 -10.220 -10.220 -10.220 -10.220 -10.220 -10.219 -10.219
-10.219 -10.219 -10.218 -10.218 -10.218 -10.218 -10.218 -10.217
-10.217 -10.217 -10.217 -10.217 -10.216 -10.216 -10.216 -10.216
-10.215 -10.215 -10.215 -10.215 -10.215 -10.215 -10.215 -10.215
-10.215 -10.215 -10.214 -10.214 -10.214 -10.214 -10.214 -10.214
-10.214 -10.213 -10.213 -10.213 -10.213 -10.213 -10.213 -10.213
-10.213 -10.213 -10.213 -10.213 -10.213 -10.212 -10.212 -10.212
-10.212 -10.212 -10.212 -10.212 -10.212 -10.212 -10.212 -10.212
-10.212 -10.211 -10.211 -10.211 -10.211 -10.211 -10.211 -10.211
-10.211 -10.211 -10.211 -10.211 -10.210 -10.210 -10.210 -10.210
-10.210 -10.209 -10.209 -10.209 -10.209 -10.209 -10.209 -10.209
-10.209 -10.209 -10.209 -10.208 -10.208 -10.208 -10.208 -10.208
-10.208 -10.208 -10.207 -10.207 -10.206 -10.206 -10.206 -10.206
-10.205 -10.205 -10.205 -10.204 -10.204 -10.203 -10.202 -10.201
-10.198 -10.198 -10.197 -10.197 -10.196 -10.196 -10.196 -10.195
-10.194 -10.194 -10.194 -10.193  -1.083  -1.067  -1.020  -0.997
 -0.983  -0.980  -0.965  -0.963  -0.961  -0.960  -0.959  -0.958
 -0.935  -0.932  -0.926  -0.926  -0.924  -0.922  -0.922  -0.919
 -0.918  -0.915  -0.896  -0.896  -0.889  -0.886  -0.884  -0.879
 -0.874  -0.868  -0.853  -0.847  -0.843  -0.841  -0.839  -0.836
 -0.834  -0.832  -0.819  -0.818  -0.807  -0.801  -0.798  -0.797
 -0.796  -0.793  -0.793  -0.790  -0.789  -0.786  -0.784  -0.782
 -0.771  -0.769  -0.768  -0.765  -0.764  -0.763  -0.761  -0.760
 -0.748  -0.747  -0.740  -0.739  -0.731  -0.728  -0.717  -0.714
 -0.714  -0.712  -0.712  -0.710  -0.709  -0.708  -0.706  -0.706
 -0.705  -0.705  -0.704  -0.703  -0.701  -0.694  -0.673  -0.670
 -0.658  -0.656  -0.655  -0.653  -0.646  -0.643  -0.632  -0.629
 -0.625  -0.624  -0.623  -0.622  -0.619  -0.619  -0.616  -0.615
 -0.615  -0.612  -0.612  -0.611  -0.609  -0.609  -0.606  -0.605
 -0.604  -0.604  -0.602  -0.598  -0.564  -0.563  -0.560  -0.559
 -0.558  -0.557  -0.556  -0.554  -0.552  -0.552  -0.550  -0.550
 -0.534  -0.533  -0.531  -0.530  -0.530  -0.526  -0.525  -0.524
 -0.522  -0.520  -0.519  -0.517  -0.516  -0.513  -0.512  -0.510
 -0.509  -0.504  -0.501  -0.497  -0.492  -0.491  -0.488  -0.484
 -0.484  -0.482  -0.481  -0.480  -0.478  -0.476  -0.474  -0.473
 -0.471  -0.470  -0.470  -0.468  -0.467  -0.466  -0.465  -0.464
 -0.464  -0.463  -0.461  -0.460  -0.459  -0.459  -0.458  -0.457
 -0.454  -0.454  -0.450  -0.448  -0.446  -0.445  -0.444  -0.442
 -0.442  -0.441  -0.439  -0.438  -0.435  -0.434  -0.433  -0.431
 -0.431  -0.429  -0.428  -0.427  -0.426  -0.423  -0.422  -0.421
 -0.421  -0.421  -0.419  -0.419  -0.418  -0.418  -0.417  -0.416
 -0.415  -0.415  -0.414  -0.413  -0.412  -0.412  -0.411  -0.411
 -0.410  -0.408  -0.407  -0.405  -0.400  -0.398  -0.395  -0.394
 -0.393  -0.393  -0.391  -0.389  -0.387  -0.384  -0.383  -0.382
 -0.378  -0.373  -0.372  -0.367  -0.366  -0.365  -0.364  -0.363
 -0.362  -0.361  -0.360  -0.358  -0.358  -0.357  -0.356  -0.355
 -0.355  -0.352  -0.351  -0.351  -0.350  -0.349  -0.349  -0.348
 -0.347  -0.346  -0.345  -0.344  -0.344  -0.343  -0.343  -0.342
 -0.341  -0.338  -0.338  -0.337  -0.337  -0.336  -0.334  -0.333
 -0.331  -0.330  -0.329  -0.327  -0.326  -0.325  -0.322  -0.321
 -0.309  -0.297  -0.295  -0.291  -0.287  -0.285  -0.282  -0.273
 -0.272  -0.269  -0.268  -0.266  -0.265  -0.265  -0.264  -0.262
 -0.261  -0.259  -0.258  -0.257  -0.254  -0.253  -0.251  -0.250
 -0.247  -0.246  -0.245  -0.242  -0.221  -0.217  -0.212  -0.209
 -0.208  -0.206  -0.206  -0.203  -0.199  -0.197

          Ground-State Mulliken Net Atomic Charges

     Atom                 Charge (a.u.)
  ----------------------------------------
      1 O                    -0.488694
      2 C                    -0.079728
      3 H                     0.133591
      4 H                     0.121758
      5 H                     0.126049
      6 O                    -0.485422
      7 C                     0.613984
      8 C                    -0.263688
      9 H                     0.150217
     10 H                     0.127835
     11 C                    -0.184023
     12 H                     0.114575
     13 H                     0.122549
     14 C                    -0.185961
     15 H                     0.110368
     16 H                     0.101460
     17 C                     0.008025
     18 C                     0.090470
     19 C                    -0.102047
     20 H                     0.085244
     21 C                    -0.097797
     22 H                     0.092332
     23 C                    -0.081971
     24 H                     0.091533
     25 C                    -0.087015
     26 H                     0.092879
     27 C                    -0.109509
     28 H                     0.095445
     29 C                    -0.010414
     30 C                     0.000876
     31 C                    -0.008733
     32 C                    -0.005322
     33 C                     0.005730
     34 C                    -0.005594
     35 C                    -0.025841
     36 C                     0.011045
     37 C                     0.001962
     38 C                     0.000135
     39 C                    -0.115430
     40 C                     0.015806
     41 C                     0.008629
     42 C                     0.012585
     43 C                     0.005080
     44 C                    -0.024077
     45 C                    -0.073198
     46 C                     0.014473
     47 C                    -0.002511
     48 C                     0.030246
     49 C                     0.006137
     50 C                    -0.014337
     51 C                     0.005362
     52 C                     0.003653
     53 C                     0.043220
     54 C                    -0.011952
     55 C                    -0.008780
     56 C                    -0.000939
     57 C                     0.011837
     58 C                     0.035556
     59 C                    -0.001737
     60 C                     0.010445
     61 C                    -0.039503
     62 C                    -0.036739
     63 C                    -0.009508
     64 C                    -0.008573
     65 C                    -0.000086
     66 C                    -0.024513
     67 C                     0.010432
     68 C                     0.027353
     69 C                    -0.031159
     70 C                     0.055799
     71 C                     0.009530
     72 C                    -0.008331
     73 C                     0.001878
     74 C                    -0.006964
     75 C                    -0.005820
     76 C                     0.008996
     77 C                     0.019466
     78 C                    -0.018196
     79 C                     0.024525
     80 C                    -0.001471
     81 C                    -0.002750
     82 C                    -0.017838
     83 C                    -0.000400
     84 C                    -0.005115
     85 C                     0.002024
     86 C                     0.020688
     87 C                     0.004220
     88 C                    -0.003749
     89 O                    -0.488261
     90 C                    -0.077638
     91 H                     0.119385
     92 H                     0.126829
     93 H                     0.125437
     94 O                    -0.462480
     95 C                     0.617652
     96 C                    -0.267259
     97 H                     0.132838
     98 H                     0.133932
     99 C                    -0.180082
    100 H                     0.124613
    101 H                     0.107800
    102 C                    -0.191806
    103 H                     0.097100
    104 H                     0.110248
    105 C                     0.046807
    106 C                     0.049266
    107 C                    -0.085275
    108 H                     0.132144
    109 C                    -0.108084
    110 H                     0.090393
    111 C                    -0.082898
    112 H                     0.089772
    113 C                    -0.090061
    114 H                     0.092016
    115 C                    -0.096116
    116 H                     0.089415
    117 C                     0.006187
    118 C                     0.002716
    119 C                    -0.001028
    120 C                    -0.010975
    121 C                    -0.032638
    122 C                     0.011747
    123 C                    -0.015933
    124 C                    -0.010383
    125 C                    -0.031381
    126 C                     0.022933
    127 C                    -0.075792
    128 C                     0.001882
    129 C                     0.011947
    130 C                     0.011073
    131 C                     0.013480
    132 C                    -0.017091
    133 C                    -0.076396
    134 C                    -0.023302
    135 C                     0.015045
    136 C                    -0.005025
    137 C                    -0.003853
    138 C                     0.008687
    139 C                    -0.027743
    140 C                    -0.001768
    141 C                     0.055029
    142 C                     0.019837
    143 C                     0.005036
    144 C                    -0.020361
    145 C                    -0.004201
    146 C                     0.024985
    147 C                     0.047800
    148 C                     0.053350
    149 C                    -0.030040
    150 C                    -0.029064
    151 C                    -0.024656
    152 C                     0.032181
    153 C                    -0.017277
    154 C                     0.036187
    155 C                    -0.034041
    156 C                     0.013432
    157 C                     0.006802
    158 C                     0.022402
    159 C                    -0.038231
    160 C                    -0.039291
    161 C                     0.027934
    162 C                     0.008426
    163 C                    -0.000872
    164 C                     0.005448
    165 C                     0.007070
    166 C                     0.024372
    167 C                    -0.016275
    168 C                    -0.014702
    169 C                     0.027756
    170 C                     0.003490
    171 C                    -0.011361
    172 C                     0.005140
    173 C                    -0.011918
    174 C                    -0.023103
    175 C                    -0.013427
    176 C                    -0.016497
  ----------------------------------------
  Sum of atomic charges =     0.000000

                    Cartesian Multipole Moments
 -----------------------------------------------------------------
    Charge (ESU x 10^10)
                 0.0000
    Dipole Moment (Debye)
         X      -2.1962      Y       0.9842      Z      -2.6026
       Tot       3.5448
    Quadrupole Moments (Debye-Ang)
        XX    -793.0423     XY     -34.7933     YY    -782.9495
        XZ       9.6000     YZ       6.3624     ZZ    -796.1032

 Total job time:  878.48s(wall), 8351.48s(cpu)
        *  Thank you very much for using Q-Chem.  Have a nice day.  *
