 Q-Chem 4.4, Q-Chem, Inc., Pleasanton, CA (2016)
 Q-Chem 4.4.2 for Intel X86 Linux

User input:
--------------------------------------------------------------
$comment
SP
$end

$rem
MEM_STATIC 5000
MEM_TOTAL 20000
JOBTYPE SP
EXCHANGE B3LYP
BASIS 6-31g(d,p)
$end

$molecule
0 1
O         -22.936000     11.256000      6.276000
C         -24.062000     12.178000      6.121000
H         -23.773000     13.233000      6.199000
H         -24.754000     12.146000      6.972000
H         -24.603000     11.953000      5.193000
O         -21.985000     11.805000      4.208000
C         -21.971000     11.148000      5.263000
C         -20.904000     10.115000      5.514000
H         -21.357000      9.160000      5.810000
H         -20.167000     10.545000      6.204000
C         -20.076000      9.730000      4.240000
H         -20.712000      9.186000      3.531000
H         -19.609000     10.584000      3.733000
C         -18.928000      8.695000      4.640000
H         -18.348000      8.605000      3.713000
H         -18.191000      9.171000      5.299000
C         -19.456000      7.320000      5.324000
C         -20.430000      6.552000      4.459000
C         -21.804000      6.624000      4.597000
H         -22.293000      7.088000      5.449000
C         -22.602000      5.939000      3.680000
H         -23.675000      6.053000      3.805000
C         -22.020000      5.349000      2.543000
H         -22.606000      4.978000      1.708000
C         -20.637000      5.241000      2.415000
H         -20.224000      4.750000      1.538000
C         -19.869000      5.878000      3.387000
H         -18.800000      5.941000      3.209000
C         -21.237000      4.814000      9.935000
C         -19.957000      3.047000      8.884000
C         -16.484000      3.260000     11.892000
C         -18.545000      9.214000     10.487000
C         -14.425000      5.259000      9.801000
C         -20.829000      4.143000      8.773000
C         -15.815000      8.386000     10.857000
C         -18.829000      3.421000     12.194000
C         -17.014000      4.757000      6.753000
C         -17.645000      9.249000      9.418000
C         -18.421000      6.578000      6.268000
C         -16.243000      5.911000      6.822000
C         -15.864000      8.184000      8.444000
C         -14.940000      7.332000     10.983000
C         -19.317000      4.307000      7.071000
C         -15.214000      5.187000     12.092000
C         -19.612000      7.215000      6.893000
C         -19.388000      8.347000      7.889000
C         -14.763000      4.511000     10.907000
C         -18.771000      6.808000     13.009000
C         -17.417000      5.051000     13.229000
C         -18.685000      4.571000     12.991000
C         -19.897000      3.348000     11.308000
C         -20.218000      8.216000      9.042000
C         -18.338000      5.091000      6.479000
C         -19.533000      2.625000     10.150000
C         -16.288000      8.822000      9.606000
C         -19.021000      3.211000      7.816000
C         -15.174000      5.933000      7.783000
C         -20.175000      7.913000     11.374000
C         -17.744000      2.806000     11.623000
C         -17.092000      7.025000      6.677000
C         -20.611000      5.594000     11.990000
C         -15.015000      7.050000      8.588000
C         -16.726000      3.671000      7.523000
C         -16.408000      7.183000     12.661000
C         -16.687000      8.315000     11.903000
C         -15.647000      3.659000      8.444000
C         -19.902000      8.754000     10.310000
C         -18.036000      8.774000      8.147000
C         -19.102000      7.942000     12.221000
C         -20.550000      6.332000      7.641000
C         -17.237000      2.333000      9.261000
C         -16.973000      8.091000      7.570000
C         -14.869000      4.838000      8.565000
C         -20.888000      6.697000     11.204000
C         -15.618000      3.364000     10.779000
C         -20.806000      4.450000     11.202000
C         -16.291000      4.369000     12.662000
C         -17.705000      2.786000      8.030000
C         -15.980000      2.866000      9.515000
C         -20.414000      4.937000      7.703000
C         -20.947000      6.997000      8.819000
C         -17.481000      6.425000     13.223000
C         -18.173000      2.285000     10.356000
C         -14.495000      6.672000      9.812000
C         -18.051000      8.757000     11.712000
C         -15.317000      6.588000     12.076000
C         -21.293000      6.233000      9.950000
C         -19.547000      5.658000     12.865000
O          -8.920000     13.387000     10.210000
C         -10.298000     13.513000     10.361000
H         -10.470000     13.998000     11.330000
H         -10.701000     12.494000     10.302000
H         -10.765000     14.037000      9.518000
O          -8.460000     14.630000      8.268000
C          -8.068000     13.961000      9.215000
C          -6.600000     13.515000      9.397000
H          -6.536000     12.589000      9.982000
H          -6.136000     14.197000     10.121000
C          -5.689000     13.415000      8.179000
H          -5.541000     14.437000      7.810000
H          -4.652000     13.119000      8.380000
C          -6.238000     12.416000      7.117000
H          -5.313000     11.942000      6.766000
H          -6.733000     11.634000      7.705000
C          -7.006000     12.867000      5.898000
C          -6.483000     14.095000      5.221000
C          -7.140000     15.343000      5.394000
H          -8.090000     15.383000      5.918000
C          -6.459000     16.443000      4.835000
H          -6.826000     17.412000      5.160000
C          -5.402000     16.282000      3.907000
H          -4.924000     17.164000      3.491000
C          -4.875000     15.023000      3.626000
H          -3.985000     14.892000      3.018000
C          -5.363000     13.927000      4.352000
H          -4.953000     12.922000      4.304000
C         -12.313000     13.560000      4.346000
C         -11.105000     13.062000      2.335000
C         -12.876000      8.906000      1.728000
C         -11.318000      9.878000      7.717000
C          -9.985000      7.210000      2.954000
C         -11.152000     13.686000      3.586000
C         -11.008000      7.471000      6.412000
C         -13.901000     10.953000      2.464000
C          -7.858000     10.724000      2.879000
C         -10.049000      9.429000      7.424000
C          -7.654000     11.790000      5.009000
C          -7.620000      9.705000      3.838000
C          -8.733000      8.309000      5.962000
C         -11.024000      6.933000      5.131000
C          -8.967000     12.882000      3.208000
C         -12.456000      7.290000      3.209000
C          -8.456000     12.538000      5.964000
C          -9.196000     11.687000      7.058000
C         -11.309000      7.392000      2.414000
C         -14.222000      9.911000      5.827000
C         -14.194000      8.924000      3.752000
C         -14.481000     10.301000      3.560000
C         -13.467000     12.301000      2.607000
C         -10.562000     12.161000      7.176000
C          -7.961000     11.921000      3.585000
C         -12.270000     12.391000      1.884000
C          -9.893000      8.233000      6.770000
C          -9.803000     12.629000      2.100000
C          -8.121000      8.384000      3.594000
C         -12.868000     11.428000      7.076000
C         -13.064000     10.294000      1.592000
C          -7.586000     10.254000      5.134000
C         -13.993000     12.214000      5.083000
C          -8.685000      7.692000      4.701000
C          -8.824000     10.413000      1.838000
C         -13.082000      7.763000      5.502000
C         -12.311000      7.974000      6.656000
C          -9.306000      9.088000      1.692000
C         -11.606000     11.283000      7.588000
C          -8.969000     10.265000      7.024000
C         -13.426000     10.173000      6.930000
C          -9.618000     13.383000      5.443000
C         -10.823000     10.662000      0.926000
C          -8.128000      9.516000      6.187000
C          -8.977000      8.118000      2.567000
C         -13.138000     12.466000      6.185000
C         -11.593000      8.396000      1.501000
C         -13.474000     12.879000      3.891000
C         -13.437000      8.187000      2.776000
C          -9.739000     11.367000      1.460000
C         -10.562000      9.257000      1.147000
C          -9.816000     13.596000      4.089000
C         -10.784000     13.155000      6.198000
C         -14.071000      8.687000      5.113000
C         -12.078000     11.154000      1.203000
C          -9.839000      6.967000      4.315000
C         -12.482000      9.181000      7.351000
C         -12.345000      7.019000      4.625000
C         -12.128000     13.310000      5.702000
C         -14.544000     10.905000      4.866000
$end

--------------------------------------------------------------

             Standard Nuclear Orientation (Angstroms)
    I     Atom           X                Y                Z
 ----------------------------------------------------------------
    1      O      -5.6047054466     4.8450777854     4.9373904250
    2      C      -6.0314613058     5.6770319274     6.0633197044
    3      H      -5.3117514612     5.6900482927     6.8906517501
    4      H      -6.8817724533     5.2469801020     6.6074845507
    5      H      -6.2880453656     6.6829712794     5.7073131871
    6      O      -3.9083227433     6.3171655723     4.2758246523
    7      C      -4.5474812975     5.2633749736     4.1149777787
    8      C      -4.2528091901     4.3526450651     2.9520855296
    9      H      -5.1767721246     4.1098363091     2.4115428359
   10      H      -3.6619492788     3.5052753908     3.3222452253
   11      C      -3.3583297226     5.0039983834     1.8418917011
   12      H      -3.9155702665     5.7989973682     1.3314285876
   13      H      -2.4047725696     5.4031972364     2.2104334651
   14      C      -3.0456192423     3.9267551762     0.7057190786
   15      H      -2.3215319295     4.4491514994     0.0680446751
   16      H      -2.4227813669     3.1155302692     1.1032277341
   17      C      -4.3560710800     3.2969773602    -0.0177177768
   18      C      -5.2480044730     4.3360030897    -0.6592825482
   19      C      -6.3796852260     4.8556312558    -0.0581259613
   20      H      -6.8254851732     4.4321178678     0.8375412856
   21      C      -7.0713588650     5.8764178959    -0.7111957987
   22      H      -7.9327470038     6.2788779787    -0.1858517627
   23      C      -6.5200271117     6.4795691656    -1.8565493876
   24      H      -6.9131679326     7.3959312294    -2.2854816236
   25      C      -5.4015030732     5.9399334906    -2.4877659222
   26      H      -5.0228928542     6.4142722682    -3.3891182540
   27      C      -4.7748831291     4.8754211135    -1.8439197879
   28      H      -3.8147064310     4.5563518188    -2.2372002142
   29      C      -8.4787199390    -0.3974401534     0.2437465997
   30      C      -7.9513465717    -0.4229999017    -2.1198341649
   31      C      -5.9635043123    -4.5694145988    -2.0154775101
   32      C      -4.3341211618    -1.2159651925     3.2543753938
   33      C      -2.6559387055    -3.2897342861    -1.8417217785
   34      C      -8.1006677460     0.2902483725    -0.9186259872
   35      C      -2.6195606000    -2.9450370064     1.7227172263
   36      C      -7.8976248230    -3.7325781378    -0.9314883092
   37      C      -4.0480475565     0.4312427053    -2.5211275309
   38      C      -3.2433808048    -0.6907684471     2.5554906734
   39      C      -4.1667914458     1.8580601576    -0.6553818766
   40      C      -2.8839587939     0.2527643515    -1.7835905284
   41      C      -1.9928261493    -0.8698356574     0.6426629270
   42      C      -2.4523034736    -3.6642189916     0.5620194508
   43      C      -6.2472815315     1.1122454664    -1.9670172870
   44      C      -4.0607618163    -4.9330658965    -0.7452185886
   45      C      -5.0309547892     1.9855398306     0.5495437016
   46      C      -4.6179484250     1.2471377899     1.8175358820
   47      C      -3.6427009113    -4.2459837286    -1.9359096377
   48      C      -6.4765371700    -3.7850464525     2.2492529501
   49      C      -6.2863512833    -4.9449764473     0.3552738753
   50      C      -7.4782985736    -4.2583243560     0.3039069356
   51      C      -8.5248806320    -2.4928421402    -0.9550213947
   52      C      -5.7243425232     0.5979246528     2.4419431227
   53      C      -4.8821871289     1.3382638988    -1.8721809011
   54      C      -8.2090989395    -1.7990686813    -2.1446218782
   55      C      -2.3998502156    -1.5568827006     1.7825584353
   56      C      -6.7693589855     0.1108942228    -2.7210649108
   57      C      -2.3042055877    -1.0627511668    -1.7751560182
   58      C      -6.5736266319    -1.5058098549     3.0623459142
   59      C      -7.1265724819    -3.8542773619    -2.0593883873
   60      C      -2.9950488556     0.9886702206    -0.5882146252
   61      C      -8.2421697926    -2.3082367180     1.4750879484
   62      C      -1.8910549279    -1.6088952255    -0.5701546906
   63      C      -4.5797603050    -0.5861497037    -3.2542265960
   64      C      -4.2549117431    -4.4823883235     1.5984128950
   65      C      -3.6974834871    -3.4702512864     2.3721579161
   66      C      -3.9955504023    -1.8783451201    -3.2936701674
   67      C      -5.6084692066    -0.5377394450     3.2749883984
   68      C      -3.3892334596     0.4942748014     1.8016030807
   69      C      -5.9511339377    -2.7228300599     3.0316267602
   70      C      -6.4596428257     1.5856231228     0.4155507131
   71      C      -6.1922510880    -2.1306756220    -3.5480329302
   72      C      -2.6670176655     0.3741141479     0.6211994362
   73      C      -2.8301637899    -2.1000958521    -2.5173540871
   74      C      -7.6882124859    -1.2785472003     2.2126547587
   75      C      -4.8533694212    -3.9767068669    -2.6603333608
   76      C      -8.7031264532    -1.7658982836     0.2663311575
   77      C      -5.5153441319    -5.1022638392    -0.8427652096
   78      C      -5.9665982362    -0.7587292639    -3.4677959003
   79      C      -4.9888241202    -2.8155502568    -3.4414296107
   80      C      -7.0402282208     1.1894942155    -0.7986846380
   81      C      -6.8366642599     0.8778438327     1.5750425478
   82      C      -5.6747859999    -4.6344006686     1.5475568073
   83      C      -7.3269024990    -2.6646715273    -2.8375123122
   84      C      -2.0358698396    -2.9833375177    -0.6075315088
   85      C      -4.5385570585    -2.5953347107     3.1592139705
   86      C      -3.4648882384    -4.5906485057     0.4800777060
   87      C      -7.8455879049    -0.0996744708     1.4796274296
   88      C      -7.6190350714    -3.5384194845     1.4881447555
   89      O       5.6284486951    -4.5139439879     3.2970451944
   90      C       4.5153989320    -3.9929180115     3.9506606447
   91      H       4.3016824058    -4.6578871892     4.7967760264
   92      H       3.7138692257    -3.9633345085     3.2017107490
   93      H       4.6532125042    -2.9437817077     4.2398568330
   94      O       7.2180974548    -2.7883334901     3.4496827749
   95      C       6.9162132379    -3.9227459860     3.1032607654
   96      C       7.8431860930    -4.8379565004     2.2724930239
   97      H       7.2641123275    -5.5607985884     1.6843009720
   98      H       8.3216236962    -5.5399987421     2.9673528305
   99      C       8.9250564336    -4.2156330411     1.3974415522
  100      H       9.6552042617    -3.7573068700     2.0752101485
  101      H       9.5661168986    -4.9211539250     0.8546084631
  102      C       8.3314738792    -3.2454207255     0.3327379251
  103      H       8.9700591852    -3.4568765936    -0.5338630343
  104      H       7.3640771244    -3.6876848093     0.0665819575
  105      C       8.3072388457    -1.7478508596     0.5221664340
  106      C       9.5405677913    -1.1514289198     1.1246799870
  107      C       9.5502187323    -0.7517984466     2.4882357593
  108      H       8.6273347074    -0.7663308744     3.0598561624
  109      C      10.8136140303    -0.3553470605     2.9708335415
  110      H      10.8776718053    -0.2755788095     4.0519480718
  111      C      11.8935598932    -0.0632934379     2.1032071157
  112      H      12.8407789783     0.2575804633     2.5266217403
  113      C      11.8065876309    -0.3123115874     0.7349246935
  114      H      12.6632043258    -0.2159098602     0.0747432449
  115      C      10.6499346888    -0.9406232219     0.2513810436
  116      H      10.5159539278    -1.2875124724    -0.7694744817
  117      C       4.7963064174     2.1515797289     2.3985983060
  118      C       6.1802115017     3.2468177798     0.7748220500
  119      C       2.9231139509     3.7432597364    -2.3751123825
  120      C       2.7679617544    -1.9659559261     0.1980283666
  121      C       4.0799869300     1.0237719552    -4.3759632310
  122      C       6.0462999889     2.3082832350     1.8033193105
  123      C       2.2748606590    -1.4586796550    -2.4651081478
  124      C       2.8387398379     3.9824420785     0.0161640165
  125      C       7.5346252150     0.8280478873    -2.1612134913
  126      C       3.6813014630    -2.3791539258    -0.7468996676
  127      C       7.5404053642    -0.8983931869    -0.5076598009
  128      C       6.9344893919    -0.3171110889    -2.7469898250
  129      C       4.6799435099    -1.9344110886    -2.7289738011
  130      C       2.4082283337    -0.4481735899    -3.4094341275
  131      C       7.5639720813     1.4808661987     0.1984587346
  132      C       2.0187731971     1.9424030866    -3.3344351269
  133      C       6.9430674037    -1.2118182409     0.7806278597
  134      C       5.5820154732    -1.9955406859     0.7364263699
  135      C       3.2568479775     2.1310142720    -3.9586423513
  136      C       1.0095345458     1.0011626517     0.5305130989
  137      C       1.2139614700     2.5902583760    -1.1167763146
  138      C       1.7036608305     3.1642300524     0.0857680925
  139      C       3.7975039104     3.9320316980     1.0669443203
  140      C       4.6568779526    -1.3813705123     1.6699527840
  141      C       7.8035913934     0.5030368757    -0.8331024127
  142      C       5.0478522683     4.0330230282     0.4423902914
  143      C       3.4396562912    -2.1231611827    -2.0730004656
  144      C       7.1098572738     2.7715076511    -0.1459151654
  145      C       5.9659709896    -0.1431728939    -3.7897245031
  146      C       2.4512125052    -0.3932457814     1.8234925199
  147      C       3.4812711954     4.2258330499    -1.1767937739
  148      C       6.8163788741    -1.3466057318    -1.7939086711
  149      C       2.5417653430     2.0055674255     2.1283947699
  150      C       4.8212110838    -0.9862478229    -3.7556889000
  151      C       6.9251309414     2.1080206534    -2.4833073417
  152      C       1.0090683336     0.3327860909    -1.8300803764
  153      C       1.3752721406    -0.9766486200    -1.4808619495
  154      C       5.9391777411     2.1874882545    -3.4986132991
  155      C       3.2503844251    -1.4405587741     1.4489624974
  156      C       5.0931755181    -2.3551940962    -0.5698867330
  157      C       1.4368853419    -0.2651395997     0.8948191586
  158      C       6.5656958976    -0.0614301160     1.7133163975
  159      C       5.7005367281     3.8584665800    -1.9122958963
  160      C       5.6845325243    -2.1620843419    -1.8276055068
  161      C       5.4636023753     1.0836744669    -4.1070450485
  162      C       3.0128228588     0.7112895364     2.4628832787
  163      C       3.7976052694     3.2541677467    -3.3517248745
  164      C       3.6636643848     2.9374255880     2.0546865272
  165      C       1.7864800506     2.9445803962    -2.3877886595
  166      C       6.7568102834     3.0439242646    -1.4903433008
  167      C       5.1669205404     3.2655290525    -3.1183911880
  168      C       6.9352834585     1.2461828417     1.4460293087
  169      C       5.2640591671    -0.2320302987     2.2214525992
  170      C       0.7693136077     1.3058558411    -0.8407013122
  171      C       4.8244189672     4.2878250149    -0.9417872650
  172      C       3.6512412949    -0.2722971336    -4.1131551308
  173      C       1.5969777322    -1.2591796220    -0.1243451367
  174      C       1.5305239552     0.6089035136    -3.0620207985
  175      C       4.3976378176     0.8407044132     2.6397004717
  176      C       1.5296244590     2.1812325411     1.1239627920
 ----------------------------------------------------------------

    9   -5804.2446435766      9.13E-06 Convergence criterion met
 Total energy in the final basis set = -5804.2446435766

                    Orbital Energies (a.u.)
 --------------------------------------------------------------

 Alpha MOs
 -- Occupied --
-19.190 -19.185 -19.154 -19.134 -10.337 -10.319 -10.249 -10.245
-10.241 -10.241 -10.237 -10.234 -10.233 -10.231 -10.230 -10.230
-10.230 -10.229 -10.226 -10.225 -10.224 -10.223 -10.223 -10.222
-10.222 -10.222 -10.222 -10.222 -10.221 -10.221 -10.221 -10.221
-10.220 -10.220 -10.219 -10.219 -10.219 -10.219 -10.218 -10.218
-10.218 -10.217 -10.217 -10.217 -10.217 -10.217 -10.217 -10.216
-10.216 -10.216 -10.215 -10.215 -10.215 -10.215 -10.214 -10.214
-10.214 -10.214 -10.214 -10.213 -10.213 -10.213 -10.213 -10.213
-10.213 -10.212 -10.212 -10.212 -10.212 -10.212 -10.212 -10.212
-10.212 -10.212 -10.212 -10.212 -10.211 -10.211 -10.211 -10.211
-10.211 -10.211 -10.211 -10.211 -10.210 -10.210 -10.210 -10.210
-10.210 -10.210 -10.209 -10.209 -10.209 -10.209 -10.209 -10.209
-10.209 -10.209 -10.209 -10.209 -10.209 -10.209 -10.209 -10.209
-10.209 -10.209 -10.209 -10.209 -10.208 -10.208 -10.208 -10.208
-10.208 -10.208 -10.207 -10.207 -10.207 -10.207 -10.207 -10.207
-10.207 -10.207 -10.206 -10.206 -10.206 -10.206 -10.205 -10.205
-10.205 -10.205 -10.205 -10.204 -10.204 -10.203 -10.203 -10.201
-10.200 -10.199 -10.199 -10.198 -10.198 -10.197 -10.197 -10.197
-10.196 -10.195 -10.195 -10.194  -1.083  -1.070  -1.020  -0.996
 -0.984  -0.980  -0.966  -0.965  -0.962  -0.960  -0.960  -0.959
 -0.933  -0.932  -0.930  -0.927  -0.925  -0.924  -0.922  -0.919
 -0.918  -0.915  -0.897  -0.897  -0.891  -0.886  -0.885  -0.880
 -0.872  -0.869  -0.855  -0.847  -0.842  -0.841  -0.839  -0.837
 -0.836  -0.833  -0.819  -0.816  -0.807  -0.798  -0.798  -0.798
 -0.795  -0.794  -0.793  -0.790  -0.788  -0.787  -0.782  -0.782
 -0.770  -0.768  -0.768  -0.768  -0.765  -0.763  -0.762  -0.760
 -0.756  -0.747  -0.740  -0.737  -0.731  -0.729  -0.716  -0.714
 -0.714  -0.714  -0.712  -0.711  -0.710  -0.708  -0.707  -0.706
 -0.705  -0.704  -0.704  -0.703  -0.702  -0.697  -0.670  -0.670
 -0.660  -0.657  -0.656  -0.653  -0.647  -0.646  -0.629  -0.628
 -0.627  -0.624  -0.624  -0.623  -0.621  -0.620  -0.615  -0.615
 -0.613  -0.613  -0.612  -0.612  -0.611  -0.610  -0.609  -0.606
 -0.605  -0.604  -0.603  -0.599  -0.567  -0.564  -0.561  -0.559
 -0.558  -0.557  -0.557  -0.555  -0.554  -0.552  -0.550  -0.550
 -0.535  -0.533  -0.531  -0.531  -0.527  -0.526  -0.525  -0.524
 -0.523  -0.520  -0.519  -0.516  -0.516  -0.515  -0.514  -0.510
 -0.509  -0.503  -0.501  -0.495  -0.492  -0.489  -0.485  -0.484
 -0.483  -0.483  -0.482  -0.480  -0.476  -0.476  -0.473  -0.471
 -0.471  -0.470  -0.470  -0.468  -0.467  -0.466  -0.466  -0.465
 -0.464  -0.464  -0.463  -0.462  -0.460  -0.459  -0.459  -0.458
 -0.455  -0.454  -0.452  -0.449  -0.446  -0.445  -0.443  -0.442
 -0.442  -0.441  -0.438  -0.438  -0.436  -0.434  -0.433  -0.432
 -0.431  -0.431  -0.429  -0.427  -0.427  -0.423  -0.422  -0.422
 -0.421  -0.421  -0.420  -0.419  -0.418  -0.417  -0.417  -0.416
 -0.416  -0.415  -0.415  -0.414  -0.413  -0.412  -0.411  -0.411
 -0.410  -0.408  -0.407  -0.406  -0.403  -0.400  -0.394  -0.394
 -0.393  -0.393  -0.390  -0.389  -0.388  -0.385  -0.383  -0.378
 -0.377  -0.375  -0.374  -0.372  -0.368  -0.366  -0.365  -0.364
 -0.363  -0.360  -0.360  -0.358  -0.358  -0.357  -0.356  -0.355
 -0.355  -0.354  -0.352  -0.352  -0.351  -0.350  -0.350  -0.349
 -0.347  -0.347  -0.346  -0.344  -0.343  -0.342  -0.342  -0.342
 -0.342  -0.340  -0.338  -0.337  -0.337  -0.336  -0.335  -0.332
 -0.331  -0.331  -0.329  -0.328  -0.327  -0.326  -0.324  -0.322
 -0.301  -0.297  -0.295  -0.295  -0.288  -0.286  -0.282  -0.271
 -0.270  -0.268  -0.267  -0.266  -0.265  -0.264  -0.263  -0.263
 -0.262  -0.259  -0.259  -0.258  -0.257  -0.254  -0.252  -0.250
 -0.250  -0.245  -0.242  -0.241  -0.221  -0.220  -0.214  -0.210
 -0.208  -0.207  -0.205  -0.202  -0.199  -0.194

          Ground-State Mulliken Net Atomic Charges

     Atom                 Charge (a.u.)
  ----------------------------------------
      1 O                    -0.488763
      2 C                    -0.080101
      3 H                     0.125417
      4 H                     0.122447
      5 H                     0.132208
      6 O                    -0.472127
      7 C                     0.601188
      8 C                    -0.251170
      9 H                     0.131901
     10 H                     0.141678
     11 C                    -0.184437
     12 H                     0.120800
     13 H                     0.121615
     14 C                    -0.203683
     15 H                     0.113744
     16 H                     0.107133
     17 C                    -0.002654
     18 C                     0.108125
     19 C                    -0.117961
     20 H                     0.099748
     21 C                    -0.092201
     22 H                     0.091471
     23 C                    -0.085130
     24 H                     0.089039
     25 C                    -0.082862
     26 H                     0.096921
     27 C                    -0.104684
     28 H                     0.091474
     29 C                     0.000415
     30 C                    -0.007189
     31 C                     0.010159
     32 C                    -0.009582
     33 C                    -0.001745
     34 C                    -0.010153
     35 C                     0.021548
     36 C                     0.012732
     37 C                     0.033436
     38 C                    -0.010439
     39 C                    -0.101850
     40 C                    -0.029863
     41 C                    -0.016774
     42 C                    -0.015890
     43 C                     0.020419
     44 C                    -0.026825
     45 C                    -0.089743
     46 C                     0.012624
     47 C                    -0.000587
     48 C                     0.003745
     49 C                    -0.007936
     50 C                    -0.003176
     51 C                    -0.013265
     52 C                     0.039438
     53 C                     0.033244
     54 C                     0.002940
     55 C                    -0.004007
     56 C                     0.000341
     57 C                    -0.002468
     58 C                     0.031580
     59 C                     0.020274
     60 C                     0.037586
     61 C                    -0.008899
     62 C                     0.015354
     63 C                     0.001063
     64 C                    -0.001196
     65 C                    -0.015400
     66 C                    -0.003001
     67 C                    -0.039275
     68 C                    -0.011307
     69 C                    -0.007475
     70 C                     0.041479
     71 C                    -0.018951
     72 C                     0.021408
     73 C                     0.003041
     74 C                     0.013334
     75 C                    -0.007566
     76 C                    -0.003781
     77 C                    -0.004721
     78 C                    -0.011704
     79 C                     0.008446
     80 C                     0.008180
     81 C                    -0.020537
     82 C                     0.006009
     83 C                    -0.017505
     84 C                    -0.012400
     85 C                    -0.003687
     86 C                     0.026780
     87 C                    -0.017157
     88 C                     0.000300
     89 O                    -0.487849
     90 C                    -0.077571
     91 H                     0.119519
     92 H                     0.126967
     93 H                     0.125342
     94 O                    -0.462540
     95 C                     0.617228
     96 C                    -0.267150
     97 H                     0.132777
     98 H                     0.133974
     99 C                    -0.180251
    100 H                     0.124722
    101 H                     0.107753
    102 C                    -0.191535
    103 H                     0.097122
    104 H                     0.110197
    105 C                     0.044808
    106 C                     0.050428
    107 C                    -0.085753
    108 H                     0.132238
    109 C                    -0.108126
    110 H                     0.090495
    111 C                    -0.082461
    112 H                     0.089876
    113 C                    -0.089932
    114 H                     0.092172
    115 C                    -0.096601
    116 H                     0.089370
    117 C                     0.006800
    118 C                     0.003597
    119 C                    -0.009526
    120 C                    -0.014416
    121 C                    -0.019011
    122 C                     0.011355
    123 C                    -0.023751
    124 C                    -0.010643
    125 C                    -0.030764
    126 C                     0.023053
    127 C                    -0.076595
    128 C                     0.002149
    129 C                     0.011449
    130 C                     0.012696
    131 C                     0.014065
    132 C                    -0.020562
    133 C                    -0.074248
    134 C                    -0.024280
    135 C                     0.021431
    136 C                    -0.001531
    137 C                    -0.008250
    138 C                     0.004047
    139 C                    -0.027193
    140 C                    -0.001157
    141 C                     0.054029
    142 C                     0.019990
    143 C                     0.006075
    144 C                    -0.020342
    145 C                    -0.004257
    146 C                     0.019565
    147 C                     0.049397
    148 C                     0.054002
    149 C                    -0.030360
    150 C                    -0.026962
    151 C                    -0.024425
    152 C                     0.038007
    153 C                    -0.010505
    154 C                     0.034380
    155 C                    -0.032557
    156 C                     0.013518
    157 C                     0.014883
    158 C                     0.021189
    159 C                    -0.035098
    160 C                    -0.039437
    161 C                     0.027559
    162 C                     0.008774
    163 C                    -0.011887
    164 C                     0.005890
    165 C                    -0.004133
    166 C                     0.025076
    167 C                    -0.013757
    168 C                    -0.014390
    169 C                     0.027632
    170 C                     0.004161
    171 C                    -0.011082
    172 C                     0.001309
    173 C                    -0.008349
    174 C                    -0.024083
    175 C                    -0.012885
    176 C                    -0.023819
  ----------------------------------------
  Sum of atomic charges =     0.000000

                    Cartesian Multipole Moments
 -----------------------------------------------------------------
    Charge (ESU x 10^10)
                 0.0000
    Dipole Moment (Debye)
         X       1.6458      Y      -1.4089      Z       0.6552
       Tot       2.2634
    Quadrupole Moments (Debye-Ang)
        XX    -763.1752     XY     -42.1872     YY    -798.8023
        XZ      -4.1240     YZ     -10.8721     ZZ    -799.6714

 Total job time:  874.58s(wall), 8341.44s(cpu)
        *  Thank you very much for using Q-Chem.  Have a nice day.  *
