 Q-Chem 4.4, Q-Chem, Inc., Pleasanton, CA (2016)
 Q-Chem 4.4.2 for Intel X86 Linux

User input:
--------------------------------------------------------------
$comment
SP
$end

$rem
MEM_STATIC 5000
MEM_TOTAL 20000
JOBTYPE SP
EXCHANGE B3LYP
BASIS 6-31g(d,p)
$end

$molecule
0 1
O         -12.370000      2.359000     -2.887000
C         -10.958000      2.105000     -3.183000
H         -10.650000      1.234000     -2.592000
H         -10.401000      3.035000     -3.012000
H         -10.944000      1.843000     -4.248000
O         -13.020000      0.134000     -2.788000
C         -13.271000      1.354000     -2.784000
C         -14.723000      1.901000     -2.581000
H         -15.387000      1.132000     -2.167000
H         -14.973000      2.109000     -3.629000
C         -14.862000      3.183000     -1.726000
H         -14.383000      3.019000     -0.752000
H         -14.255000      3.989000     -2.157000
C         -16.339000      3.490000     -1.503000
H         -16.781000      3.653000     -2.494000
H         -16.970000      2.607000     -1.343000
C         -16.643000      4.697000     -0.657000
C         -16.493000      4.314000      0.836000
C         -17.473000      3.534000      1.440000
H         -18.385000      3.310000      0.894000
C         -17.344000      3.164000      2.771000
H         -18.156000      2.607000      3.229000
C         -16.235000      3.507000      3.536000
H         -16.183000      3.219000      4.582000
C         -15.202000      4.223000      2.963000
H         -14.320000      4.522000      3.522000
C         -15.357000      4.618000      1.577000
H         -14.668000      5.265000      1.042000
C         -20.215000      8.665000      0.442000
C         -18.106000      9.643000      0.981000
C         -18.136000     12.517000     -2.461000
C         -20.255000      6.840000     -4.234000
C         -16.020000     10.620000     -4.454000
C         -18.923000      8.549000      1.065000
C         -18.628000      8.559000     -5.787000
C         -19.929000     11.921000     -0.986000
C         -15.240000      8.178000     -1.305000
C         -18.932000      6.454000     -4.528000
C         -16.378000      6.106000     -1.182000
C         -15.175000      7.637000     -2.563000
C         -16.866000      7.207000     -4.805000
C         -17.826000      9.680000     -5.700000
C         -16.793000      7.900000      0.486000
C         -18.156000     11.766000     -4.568000
C         -17.785000      5.541000     -1.001000
C         -18.658000      5.469000     -2.224000
C         -16.840000     11.651000     -4.051000
C         -21.582000      9.990000     -3.548000
C         -20.227000     11.801000     -3.408000
C         -20.737000     11.537000     -2.123000
C         -19.946000     11.026000      0.096000
C         -19.936000      5.922000     -1.940000
C         -15.980000      7.307000     -0.488000
C         -18.599000     10.885000      0.591000
C         -18.121000      7.324000     -5.287000
C         -16.841000      9.290000      0.672000
C         -15.204000      8.535000     -3.686000
C         -21.577000      7.715000     -2.627000
C         -18.578000     12.250000     -1.169000
C         -15.975000      6.498000     -2.598000
C         -21.579000      9.581000     -1.083000
C         -16.052000      8.335000     -4.793000
C         -15.149000      9.584000     -1.082000
C         -20.005000     10.225000     -5.255000
C         -19.969000      8.877000     -5.532000
C         -15.247000     10.461000     -2.184000
C         -20.757000      6.590000     -2.903000
C         -18.160000      5.831000     -3.514000
C         -21.528000      8.609000     -3.728000
C         -18.624000      6.355000     -0.037000
C         -16.392000     11.411000     -0.497000
C         -16.851000      6.375000     -3.677000
C         -15.167000      9.975000     -3.500000
C         -21.505000      8.184000     -1.366000
C         -16.811000     12.126000     -2.752000
C         -20.756000      9.837000     -0.019000
C         -18.961000     12.331000     -3.564000
C         -15.978000     10.124000     -0.048000
C         -15.929000     11.613000     -1.811000
C         -18.109000      7.388000      0.786000
C         -19.906000      6.508000     -0.644000
C         -20.814000     10.853000     -4.313000
C         -17.737000     11.649000     -0.214000
C         -16.492000      9.602000     -5.219000
C         -20.749000      8.043000     -4.715000
C         -18.668000     10.764000     -5.342000
C         -20.666000      7.627000     -0.386000
C         -21.558000     10.420000     -2.185000
O          -8.920000     13.387000     10.210000
C         -10.298000     13.513000     10.361000
H         -10.470000     13.998000     11.330000
H         -10.701000     12.494000     10.302000
H         -10.765000     14.037000      9.518000
O          -8.460000     14.630000      8.268000
C          -8.068000     13.961000      9.215000
C          -6.600000     13.515000      9.397000
H          -6.536000     12.589000      9.982000
H          -6.136000     14.197000     10.121000
C          -5.689000     13.415000      8.179000
H          -5.541000     14.437000      7.810000
H          -4.652000     13.119000      8.380000
C          -6.238000     12.416000      7.117000
H          -5.313000     11.942000      6.766000
H          -6.733000     11.634000      7.705000
C          -7.006000     12.867000      5.898000
C          -6.483000     14.095000      5.221000
C          -7.140000     15.343000      5.394000
H          -8.090000     15.383000      5.918000
C          -6.459000     16.443000      4.835000
H          -6.826000     17.412000      5.160000
C          -5.402000     16.282000      3.907000
H          -4.924000     17.164000      3.491000
C          -4.875000     15.023000      3.626000
H          -3.985000     14.892000      3.018000
C          -5.363000     13.927000      4.352000
H          -4.953000     12.922000      4.304000
C         -12.313000     13.560000      4.346000
C         -11.105000     13.062000      2.335000
C         -12.876000      8.906000      1.728000
C         -11.318000      9.878000      7.717000
C          -9.985000      7.210000      2.954000
C         -11.152000     13.686000      3.586000
C         -11.008000      7.471000      6.412000
C         -13.901000     10.953000      2.464000
C          -7.858000     10.724000      2.879000
C         -10.049000      9.429000      7.424000
C          -7.654000     11.790000      5.009000
C          -7.620000      9.705000      3.838000
C          -8.733000      8.309000      5.962000
C         -11.024000      6.933000      5.131000
C          -8.967000     12.882000      3.208000
C         -12.456000      7.290000      3.209000
C          -8.456000     12.538000      5.964000
C          -9.196000     11.687000      7.058000
C         -11.309000      7.392000      2.414000
C         -14.222000      9.911000      5.827000
C         -14.194000      8.924000      3.752000
C         -14.481000     10.301000      3.560000
C         -13.467000     12.301000      2.607000
C         -10.562000     12.161000      7.176000
C          -7.961000     11.921000      3.585000
C         -12.270000     12.391000      1.884000
C          -9.893000      8.233000      6.770000
C          -9.803000     12.629000      2.100000
C          -8.121000      8.384000      3.594000
C         -12.868000     11.428000      7.076000
C         -13.064000     10.294000      1.592000
C          -7.586000     10.254000      5.134000
C         -13.993000     12.214000      5.083000
C          -8.685000      7.692000      4.701000
C          -8.824000     10.413000      1.838000
C         -13.082000      7.763000      5.502000
C         -12.311000      7.974000      6.656000
C          -9.306000      9.088000      1.692000
C         -11.606000     11.283000      7.588000
C          -8.969000     10.265000      7.024000
C         -13.426000     10.173000      6.930000
C          -9.618000     13.383000      5.443000
C         -10.823000     10.662000      0.926000
C          -8.128000      9.516000      6.187000
C          -8.977000      8.118000      2.567000
C         -13.138000     12.466000      6.185000
C         -11.593000      8.396000      1.501000
C         -13.474000     12.879000      3.891000
C         -13.437000      8.187000      2.776000
C          -9.739000     11.367000      1.460000
C         -10.562000      9.257000      1.147000
C          -9.816000     13.596000      4.089000
C         -10.784000     13.155000      6.198000
C         -14.071000      8.687000      5.113000
C         -12.078000     11.154000      1.203000
C          -9.839000      6.967000      4.315000
C         -12.482000      9.181000      7.351000
C         -12.345000      7.019000      4.625000
C         -12.128000     13.310000      5.702000
C         -14.544000     10.905000      4.866000
$end

--------------------------------------------------------------

             Standard Nuclear Orientation (Angstroms)
    I     Atom           X                Y                Z
 ----------------------------------------------------------------
    1      O       3.9871901328    -6.6791717178     3.3212564958
    2      C       3.2635923414    -7.3573307265     4.3993949819
    3      H       2.9512172160    -8.3375722191     4.0194813112
    4      H       2.4652224212    -6.6894335608     4.7471144760
    5      H       4.0136227870    -7.4968745251     5.1874602451
    6      O       5.0948165414    -8.5575261699     2.5288713047
    7      C       4.8776132351    -7.3310805841     2.5372944248
    8      C       5.5944148113    -6.3553776515     1.5458705560
    9      H       6.0451507533    -6.8974956608     0.7052766144
   10      H       6.3686015735    -5.9682481582     2.2202840883
   11      C       4.7385146950    -5.1965832131     0.9815121235
   12      H       3.8361551443    -5.6111697020     0.5136678282
   13      H       4.3267852204    -4.5990204557     1.8044602328
   14      C       5.5371531387    -4.4395025491    -0.0741926196
   15      H       6.4246043652    -4.0364268299     0.4297659949
   16      H       6.1624291905    -5.0730621971    -0.7153494112
   17      C       4.8270354571    -3.2950212863    -0.7456660124
   18      C       3.8968692619    -3.8589996547    -1.8479170043
   19      C       4.4527576499    -4.3257736627    -3.0339718621
   20      H       5.5123768900    -4.1747973959    -3.2195769076
   21      C       3.6359986156    -4.8537403860    -4.0235464267
   22      H       4.0949088507    -5.1524243505    -4.9613877169
   23      C       2.2607174431    -4.9816598417    -3.8654537030
   24      H       1.6526786930    -5.3775091041    -4.6737582495
   25      C       1.6684074607    -4.5957500298    -2.6787285866
   26      H       0.5975865815    -4.6677958163    -2.5115219800
   27      C       2.5303376023    -4.0299741534    -1.6598958778
   28      H       2.1779275909    -3.5979405976    -0.7278501758
   29      C       5.3690927978     1.5001481957    -3.2803321597
   30      C       3.2304635743     1.6572033053    -2.2332004884
   31      C       4.5144490957     4.7176965693     0.7822434527
   32      C       8.9498470295     0.2891424067     0.0225249536
   33      C       4.8995533711     2.4415129547     3.3743076591
   34      C       4.1024132922     0.8958599611    -2.9622004896
   35      C       8.2401927051     1.5185662452     2.4717711163
   36      C       5.0302696676     4.6039980845    -1.5558523093
   37      C       3.1356201308    -0.4338840989     1.1140872478
   38      C       8.3298850818    -0.4832280320     1.0249480623
   39      C       4.5221098680    -2.0086201923     0.0180902383
   40      C       4.0617246962    -0.8318152992     2.0433079395
   41      C       6.8114836077    -0.4379014657     2.6387933045
   42      C       7.2616135847     2.2924495645     3.0641405223
   43      C       3.1801796977    -0.3624767624    -1.2712197424
   44      C       6.1064479158     4.2395267564     2.2791547349
   45      C       5.5777646889    -2.0875947986    -1.0823600834
   46      C       6.9908635023    -1.7368793938    -0.7039523029
   47      C       4.8898413837     3.6391817456     2.6936718205
   48      C       8.4376440359     3.6120253413    -0.8994957057
   49      C       6.8153428576     4.8425141248     0.0951812473
   50      C       6.4431195142     4.6317559308    -1.2457332788
   51      C       4.6425227936     3.6586560239    -2.5191896075
   52      C       7.5640469040    -0.9156981484    -1.6611728366
   53      C       3.4167489075    -1.0880907370    -0.0969909023
   54      C       3.4264157104     3.0258953537    -2.0719620409
   55      C       7.9623434354     0.1403385161     2.2360549520
   56      C       2.6502245262     0.9366553357    -1.2511372162
   57      C       4.5068752405     0.1359375401     3.0095736560
   58      C       8.5790631356     1.3829955639    -1.9170014253
   59      C       4.0909293257     4.4807221537    -0.5217470115
   60      C       5.0116684192    -1.6286330557     1.4098772913
   61      C       7.0023293898     2.9717475222    -2.8420278627
   62      C       5.8698185747     0.3463291766     3.2971042229
   63      C       2.4793125577     0.8300402553     1.1953374564
   64      C       8.3366869485     3.4835974367     1.4305937647
   65      C       8.9193645019     2.2372739710     1.4784862250
   66      C       2.9663883078     1.7989462099     2.0992818488
   67      C       8.5383169739     0.0840563084    -1.3466527944
   68      C       7.3432768543    -1.4297728509     0.6468394652
   69      C       8.9566868062     2.3187021028    -0.9191579323
   70      C       5.2949662342    -1.1451918734    -2.2346251399
   71      C       2.3963257846     2.8957357357     0.2200332075
   72      C       6.3518431999    -1.3396619758     1.6690553617
   73      C       3.9011188995     1.4535725135     3.0899622872
   74      C       7.5778045913     1.6674607326    -2.7724702415
   75      C       3.8927800564     3.9396624668     1.7829319862
   76      C       5.6662991751     2.8266324040    -3.1045652276
   77      C       5.8541921594     4.9331203310     1.0830941234
   78      C       2.2329100065     1.5050965069    -0.0422334870
   79      C       2.8398811187     3.0670861166     1.5450489480
   80      C       4.0793325317    -0.4344990348    -2.3983120072
   81      C       6.5325969390    -0.5112312078    -2.5536018051
   82      C       8.1063910458     4.2439966041     0.2882339688
   83      C       3.0861908626     3.5379082998    -0.8082948394
   84      C       6.0433331332     1.7245102272     3.5226584069
   85      C       9.2167572021     1.6310767616     0.2474185887
   86      C       7.2789363051     3.5517910799     2.4114975333
   87      C       6.5444994769     0.7639455647    -3.0733205064
   88      C       7.4179109535     3.8653604225    -1.8686245812
   89      O     -10.2862439787     1.1432055172    -3.0135825756
   90      C      -9.4534941895     1.7051493859    -3.9770699274
   91      H     -10.1029985259     2.1163111922    -4.7599237362
   92      H      -8.8059552991     0.8908656338    -4.3261921933
   93      H      -8.7581329249     2.4394504509    -3.5521126853
   94      O      -9.7758073344     2.3562143435    -1.0652301898
   95      C     -10.4379404307     1.5002569301    -1.6370261928
   96      C     -11.4427049514     0.5738659285    -0.9163931585
   97      H     -11.5620631083    -0.3759135347    -1.4525550759
   98      H     -12.4471100022     0.9829599893    -1.0849414998
   99      C     -11.2782673669     0.3028590866     0.5745664561
  100      H     -11.4758405520     1.2494532197     1.0917447461
  101      H     -12.0401146008    -0.3412148185     1.0307940275
  102      C      -9.8979525231    -0.3398113668     0.9046446597
  103      H     -10.1736621536    -1.0559844963     1.6885976227
  104      H      -9.6723092101    -0.9685456814     0.0351210793
  105      C      -8.7289122890     0.4655271326     1.4184158467
  106      C      -9.0607618102     1.5120743201     2.4354983800
  107      C      -9.1087041674     2.8826037047     2.0634328801
  108      H      -8.7860535076     3.1824824739     1.0711399418
  109      C      -9.5855007898     3.7442636884     3.0716238607
  110      H      -9.8443722573     4.7408635766     2.7265887519
  111      C      -9.6882088391     3.3372856431     4.4237236822
  112      H     -10.0431154159     4.0475247955     5.1647133368
  113      C      -9.4767877002     2.0110223287     4.7953387017
  114      H      -9.6747628218     1.6546108405     5.8016695133
  115      C      -9.2429681966     1.0713982663     3.7810058859
  116      H      -9.1785807982    -0.0020466107     3.9359231509
  117      C      -4.2344195137     3.0459740073    -0.6295174089
  118      C      -3.6479621834     2.3853563775     1.6000657689
  119      C      -0.6849073476    -0.8551768260     0.3767601664
  120      C      -5.8928469554    -1.0860774612    -3.0966126812
  121      C      -2.9520545730    -3.5358434785     1.0181982044
  122      C      -4.6088934039     2.8557834732     0.6990133082
  123      C      -4.5109078728    -3.3092952760    -2.2361936438
  124      C      -1.0875516017     1.3282731232    -0.5467948801
  125      C      -5.5267875671    -0.9447576895     2.8983509756
  126      C      -6.4552726849    -1.8995743210    -2.1375969576
  127      C      -7.3637637458    -0.2351830129     1.5430302397
  128      C      -5.9760284515    -2.0785558201     2.1721482306
  129      C      -6.0937367552    -3.2360551088    -0.3468398900
  130      C      -3.5142116609    -3.6750128113    -1.3398073735
  131      C      -5.6476636664     1.4129896942     2.2491189346
  132      C      -1.4019854902    -2.6632874758    -0.7176583164
  133      C      -7.6457068966     0.6339725306     0.4117434941
  134      C      -7.5467806045    -0.0302659734    -1.0086922837
  135      C      -1.7367081981    -2.8676617697     0.6255579197
  136      C      -2.6619715364     0.1096469438    -3.4682202350
  137      C      -1.0483656307    -0.6089891481    -1.9983848194
  138      C      -1.1662069627     0.7969316340    -1.8407073795
  139      C      -1.9156825741     2.4317695165    -0.1969323323
  140      C      -6.8131037767     0.8571830765    -1.8911368973
  141      C      -6.2861904090     0.1378615170     2.4589229640
  142      C      -2.3274092831     2.1919973696     1.1208796553
  143      C      -5.7664590721    -3.0043333494    -1.7045712126
  144      C      -4.2755307198     1.5698216535     2.5376044860
  145      C      -5.0453448512    -3.1239174476     1.8613024425
  146      C      -4.8931005182     0.9497961553    -3.3642069246
  147      C      -0.9114287242     0.5222176856     0.5552438503
  148      C      -6.9984280114    -1.7100922554     1.2771025662
  149      C      -3.0892391606     2.2684886197    -2.4354419452
  150      C      -5.1294068731    -3.6992179333     0.5634688909
  151      C      -4.0871651453    -0.8058764279     3.0458544601
  152      C      -2.5686386157    -2.2494843665    -2.8011989259
  153      C      -3.9107914671    -2.4287711831    -3.1715500578
  154      C      -3.2307522367    -1.8715019101     2.6713357534
  155      C      -6.0589437166     0.3398692750    -2.9839282930
  156      C      -7.2288962935    -1.4348674355    -1.0372106515
  157      C      -4.0056899677    -0.0248925155    -3.7767472375
  158      C      -6.7689068713     1.8673910960     0.1981776771
  159      C      -2.1825779752     0.1888381822     2.5235168722
  160      C      -7.0489416421    -2.3302232385     0.0280617595
  161      C      -3.7063845639    -2.9810100811     2.0733963687
  162      C      -4.4706040972     2.1050063441    -2.7075401950
  163      C      -1.2795044213    -1.7373557543     1.2855685392
  164      C      -2.9109345875     2.8423263746    -1.1045145580
  165      C      -0.7249794002    -1.4506487399    -0.8777490725
  166      C      -3.5097484071     0.4324479161     2.8929893913
  167      C      -2.0558805919    -1.2376600796     2.3234231891
  168      C      -5.8386943726     2.2736478669     1.1402759434
  169      C      -6.3550402939     1.9641934689    -1.1438017403
  170      C      -1.9225873024    -1.0134486409    -2.9962665697
  171      C      -1.6336296277     1.0396193758     1.5915055673
  172      C      -3.8405255406    -3.9535955651     0.0339276451
  173      C      -4.6186037705    -1.3129612039    -3.6438686297
  174      C      -2.2917719682    -3.1013161561    -1.7699077634
  175      C      -5.1448968608     2.6091756449    -1.5864391357
  176      C      -2.1443790301     1.2482416881    -2.7966988239
 ----------------------------------------------------------------

    9   -5804.2573224953      8.96E-06 Convergence criterion met
 Total energy in the final basis set = -5804.2573224953

                    Orbital Energies (a.u.)
 --------------------------------------------------------------

 Alpha MOs
 -- Occupied --
-19.194 -19.186 -19.154 -19.129 -10.338 -10.318 -10.252 -10.242
-10.241 -10.239 -10.239 -10.235 -10.234 -10.232 -10.231 -10.231
-10.230 -10.229 -10.226 -10.226 -10.225 -10.224 -10.223 -10.223
-10.222 -10.222 -10.221 -10.221 -10.221 -10.220 -10.219 -10.219
-10.219 -10.219 -10.218 -10.218 -10.218 -10.218 -10.218 -10.217
-10.217 -10.217 -10.217 -10.217 -10.217 -10.216 -10.216 -10.216
-10.216 -10.215 -10.215 -10.215 -10.215 -10.215 -10.215 -10.215
-10.215 -10.215 -10.215 -10.215 -10.214 -10.214 -10.214 -10.214
-10.214 -10.214 -10.214 -10.214 -10.213 -10.213 -10.213 -10.213
-10.213 -10.213 -10.213 -10.213 -10.213 -10.213 -10.212 -10.212
-10.212 -10.212 -10.212 -10.212 -10.212 -10.212 -10.212 -10.212
-10.212 -10.212 -10.211 -10.211 -10.211 -10.211 -10.211 -10.211
-10.210 -10.210 -10.210 -10.210 -10.210 -10.210 -10.210 -10.210
-10.210 -10.210 -10.209 -10.209 -10.209 -10.209 -10.209 -10.209
-10.209 -10.209 -10.209 -10.209 -10.208 -10.208 -10.208 -10.207
-10.207 -10.207 -10.207 -10.206 -10.206 -10.206 -10.206 -10.206
-10.205 -10.205 -10.205 -10.204 -10.203 -10.202 -10.202 -10.199
-10.199 -10.199 -10.198 -10.198 -10.197 -10.196 -10.196 -10.195
-10.194 -10.193 -10.193 -10.192  -1.085  -1.083  -1.021  -0.995
 -0.983  -0.981  -0.965  -0.962  -0.962  -0.962  -0.961  -0.959
 -0.935  -0.933  -0.927  -0.926  -0.923  -0.922  -0.922  -0.920
 -0.920  -0.916  -0.897  -0.896  -0.887  -0.887  -0.886  -0.880
 -0.875  -0.869  -0.854  -0.847  -0.842  -0.840  -0.839  -0.838
 -0.837  -0.833  -0.823  -0.819  -0.807  -0.805  -0.798  -0.798
 -0.794  -0.794  -0.792  -0.791  -0.790  -0.787  -0.785  -0.783
 -0.771  -0.769  -0.767  -0.766  -0.765  -0.764  -0.764  -0.760
 -0.747  -0.745  -0.742  -0.741  -0.735  -0.731  -0.715  -0.715
 -0.714  -0.713  -0.712  -0.711  -0.709  -0.709  -0.707  -0.707
 -0.706  -0.705  -0.704  -0.704  -0.703  -0.702  -0.671  -0.671
 -0.661  -0.656  -0.656  -0.654  -0.648  -0.647  -0.631  -0.630
 -0.625  -0.624  -0.624  -0.623  -0.620  -0.620  -0.616  -0.615
 -0.613  -0.613  -0.613  -0.612  -0.610  -0.609  -0.608  -0.606
 -0.605  -0.604  -0.603  -0.599  -0.567  -0.565  -0.563  -0.561
 -0.559  -0.558  -0.556  -0.555  -0.555  -0.553  -0.553  -0.550
 -0.536  -0.535  -0.534  -0.531  -0.528  -0.527  -0.525  -0.521
 -0.520  -0.520  -0.517  -0.517  -0.515  -0.514  -0.512  -0.510
 -0.509  -0.508  -0.502  -0.495  -0.493  -0.489  -0.485  -0.485
 -0.483  -0.483  -0.482  -0.482  -0.481  -0.477  -0.475  -0.474
 -0.472  -0.471  -0.471  -0.469  -0.467  -0.466  -0.465  -0.464
 -0.464  -0.463  -0.462  -0.461  -0.460  -0.460  -0.459  -0.455
 -0.455  -0.455  -0.454  -0.450  -0.449  -0.447  -0.444  -0.443
 -0.442  -0.442  -0.439  -0.439  -0.437  -0.434  -0.434  -0.432
 -0.431  -0.428  -0.427  -0.426  -0.424  -0.423  -0.423  -0.423
 -0.422  -0.421  -0.421  -0.419  -0.418  -0.418  -0.416  -0.416
 -0.415  -0.415  -0.413  -0.413  -0.412  -0.412  -0.412  -0.411
 -0.409  -0.408  -0.408  -0.408  -0.401  -0.401  -0.401  -0.395
 -0.394  -0.392  -0.391  -0.390  -0.388  -0.386  -0.384  -0.384
 -0.379  -0.376  -0.374  -0.368  -0.368  -0.366  -0.365  -0.364
 -0.362  -0.360  -0.359  -0.358  -0.357  -0.357  -0.356  -0.355
 -0.355  -0.354  -0.352  -0.352  -0.350  -0.350  -0.350  -0.349
 -0.348  -0.348  -0.347  -0.345  -0.345  -0.344  -0.343  -0.342
 -0.340  -0.339  -0.338  -0.337  -0.337  -0.334  -0.333  -0.332
 -0.332  -0.330  -0.329  -0.328  -0.327  -0.326  -0.323  -0.321
 -0.316  -0.297  -0.296  -0.295  -0.289  -0.285  -0.283  -0.271
 -0.269  -0.267  -0.266  -0.265  -0.264  -0.263  -0.262  -0.261
 -0.260  -0.259  -0.258  -0.257  -0.256  -0.253  -0.251  -0.250
 -0.250  -0.247  -0.246  -0.242  -0.223  -0.219  -0.211  -0.210
 -0.208  -0.206  -0.204  -0.203  -0.199  -0.199

          Ground-State Mulliken Net Atomic Charges

     Atom                 Charge (a.u.)
  ----------------------------------------
      1 O                    -0.464576
      2 C                    -0.086771
      3 H                     0.145683
      4 H                     0.133706
      5 H                     0.132287
      6 O                    -0.490496
      7 C                     0.579927
      8 C                    -0.248086
      9 H                     0.131585
     10 H                     0.131502
     11 C                    -0.178128
     12 H                     0.114596
     13 H                     0.119943
     14 C                    -0.187035
     15 H                     0.100633
     16 H                     0.111494
     17 C                     0.011997
     18 C                     0.115257
     19 C                    -0.106685
     20 H                     0.084836
     21 C                    -0.086662
     22 H                     0.086676
     23 C                    -0.077750
     24 H                     0.090569
     25 C                    -0.095894
     26 H                     0.099723
     27 C                    -0.130385
     28 H                     0.087962
     29 C                     0.005882
     30 C                     0.020907
     31 C                    -0.012531
     32 C                    -0.022578
     33 C                    -0.016438
     34 C                    -0.034686
     35 C                     0.004878
     36 C                    -0.031027
     37 C                     0.019304
     38 C                    -0.028656
     39 C                    -0.089640
     40 C                    -0.014716
     41 C                    -0.005076
     42 C                    -0.013426
     43 C                    -0.020980
     44 C                    -0.018514
     45 C                    -0.097166
     46 C                     0.028016
     47 C                     0.031652
     48 C                    -0.003202
     49 C                     0.017154
     50 C                     0.023152
     51 C                    -0.034925
     52 C                     0.003201
     53 C                     0.048871
     54 C                    -0.014548
     55 C                     0.014480
     56 C                     0.061050
     57 C                    -0.017482
     58 C                    -0.001791
     59 C                     0.004073
     60 C                     0.013440
     61 C                    -0.026403
     62 C                     0.001332
     63 C                    -0.010498
     64 C                     0.020325
     65 C                    -0.006330
     66 C                     0.028136
     67 C                    -0.008898
     68 C                     0.001455
     69 C                     0.016697
     70 C                     0.058697
     71 C                    -0.037955
     72 C                     0.016678
     73 C                    -0.039585
     74 C                    -0.006367
     75 C                     0.012428
     76 C                     0.037009
     77 C                    -0.014139
     78 C                    -0.036947
     79 C                    -0.000319
     80 C                    -0.029237
     81 C                    -0.010355
     82 C                    -0.031994
     83 C                     0.053304
     84 C                     0.018683
     85 C                     0.015836
     86 C                     0.004871
     87 C                     0.016925
     88 C                     0.004471
     89 O                    -0.488040
     90 C                    -0.077480
     91 H                     0.119398
     92 H                     0.126552
     93 H                     0.125542
     94 O                    -0.462520
     95 C                     0.617581
     96 C                    -0.267313
     97 H                     0.132624
     98 H                     0.134091
     99 C                    -0.180422
    100 H                     0.124952
    101 H                     0.107796
    102 C                    -0.191602
    103 H                     0.097058
    104 H                     0.109983
    105 C                     0.046857
    106 C                     0.049339
    107 C                    -0.085520
    108 H                     0.132139
    109 C                    -0.108003
    110 H                     0.090609
    111 C                    -0.082820
    112 H                     0.090053
    113 C                    -0.089905
    114 H                     0.092239
    115 C                    -0.096013
    116 H                     0.089175
    117 C                     0.005909
    118 C                     0.002867
    119 C                    -0.005531
    120 C                    -0.011224
    121 C                    -0.020187
    122 C                     0.012615
    123 C                    -0.020822
    124 C                    -0.006405
    125 C                    -0.030657
    126 C                     0.022049
    127 C                    -0.076544
    128 C                     0.001194
    129 C                     0.011271
    130 C                     0.012910
    131 C                     0.012752
    132 C                    -0.025313
    133 C                    -0.076418
    134 C                    -0.023957
    135 C                     0.019197
    136 C                    -0.004884
    137 C                    -0.003030
    138 C                     0.010976
    139 C                    -0.028892
    140 C                    -0.001519
    141 C                     0.056010
    142 C                     0.018431
    143 C                     0.007127
    144 C                    -0.020228
    145 C                    -0.003979
    146 C                     0.025923
    147 C                     0.058383
    148 C                     0.054352
    149 C                    -0.029648
    150 C                    -0.026859
    151 C                    -0.024111
    152 C                     0.031847
    153 C                    -0.016385
    154 C                     0.034376
    155 C                    -0.033745
    156 C                     0.014295
    157 C                     0.006734
    158 C                     0.022266
    159 C                    -0.035191
    160 C                    -0.039234
    161 C                     0.028012
    162 C                     0.009107
    163 C                    -0.015006
    164 C                     0.006302
    165 C                     0.002093
    166 C                     0.025656
    167 C                    -0.014574
    168 C                    -0.013005
    169 C                     0.026819
    170 C                     0.003018
    171 C                    -0.014306
    172 C                     0.000461
    173 C                    -0.012560
    174 C                    -0.027248
    175 C                    -0.012941
    176 C                    -0.017303
  ----------------------------------------
  Sum of atomic charges =     0.000000

                    Cartesian Multipole Moments
 -----------------------------------------------------------------
    Charge (ESU x 10^10)
                 0.0000
    Dipole Moment (Debye)
         X      -5.1366      Y       0.1286      Z       0.1672
       Tot       5.1410
    Quadrupole Moments (Debye-Ang)
        XX    -749.6319     XY       9.9121     YY    -835.4048
        XZ      -7.6667     YZ      -0.4962     ZZ    -786.3364

 Total job time:  869.36s(wall), 8225.53s(cpu)
        *  Thank you very much for using Q-Chem.  Have a nice day.  *
