 Q-Chem 4.4, Q-Chem, Inc., Pleasanton, CA (2016)
 Q-Chem 4.4.2 for Intel X86 Linux

User input:
--------------------------------------------------------------
$comment
SP
$end

$rem
MEM_STATIC 5000
MEM_TOTAL 20000
JOBTYPE SP
EXCHANGE B3LYP
BASIS 6-31g(d,p)
$end

$molecule
0 1
O         -22.936000     11.256000      6.276000
C         -24.062000     12.178000      6.121000
H         -23.773000     13.233000      6.199000
H         -24.754000     12.146000      6.972000
H         -24.603000     11.953000      5.193000
O         -21.985000     11.805000      4.208000
C         -21.971000     11.148000      5.263000
C         -20.904000     10.115000      5.514000
H         -21.357000      9.160000      5.810000
H         -20.167000     10.545000      6.204000
C         -20.076000      9.730000      4.240000
H         -20.712000      9.186000      3.531000
H         -19.609000     10.584000      3.733000
C         -18.928000      8.695000      4.640000
H         -18.348000      8.605000      3.713000
H         -18.191000      9.171000      5.299000
C         -19.456000      7.320000      5.324000
C         -20.430000      6.552000      4.459000
C         -21.804000      6.624000      4.597000
H         -22.293000      7.088000      5.449000
C         -22.602000      5.939000      3.680000
H         -23.675000      6.053000      3.805000
C         -22.020000      5.349000      2.543000
H         -22.606000      4.978000      1.708000
C         -20.637000      5.241000      2.415000
H         -20.224000      4.750000      1.538000
C         -19.869000      5.878000      3.387000
H         -18.800000      5.941000      3.209000
C         -21.237000      4.814000      9.935000
C         -19.957000      3.047000      8.884000
C         -16.484000      3.260000     11.892000
C         -18.545000      9.214000     10.487000
C         -14.425000      5.259000      9.801000
C         -20.829000      4.143000      8.773000
C         -15.815000      8.386000     10.857000
C         -18.829000      3.421000     12.194000
C         -17.014000      4.757000      6.753000
C         -17.645000      9.249000      9.418000
C         -18.421000      6.578000      6.268000
C         -16.243000      5.911000      6.822000
C         -15.864000      8.184000      8.444000
C         -14.940000      7.332000     10.983000
C         -19.317000      4.307000      7.071000
C         -15.214000      5.187000     12.092000
C         -19.612000      7.215000      6.893000
C         -19.388000      8.347000      7.889000
C         -14.763000      4.511000     10.907000
C         -18.771000      6.808000     13.009000
C         -17.417000      5.051000     13.229000
C         -18.685000      4.571000     12.991000
C         -19.897000      3.348000     11.308000
C         -20.218000      8.216000      9.042000
C         -18.338000      5.091000      6.479000
C         -19.533000      2.625000     10.150000
C         -16.288000      8.822000      9.606000
C         -19.021000      3.211000      7.816000
C         -15.174000      5.933000      7.783000
C         -20.175000      7.913000     11.374000
C         -17.744000      2.806000     11.623000
C         -17.092000      7.025000      6.677000
C         -20.611000      5.594000     11.990000
C         -15.015000      7.050000      8.588000
C         -16.726000      3.671000      7.523000
C         -16.408000      7.183000     12.661000
C         -16.687000      8.315000     11.903000
C         -15.647000      3.659000      8.444000
C         -19.902000      8.754000     10.310000
C         -18.036000      8.774000      8.147000
C         -19.102000      7.942000     12.221000
C         -20.550000      6.332000      7.641000
C         -17.237000      2.333000      9.261000
C         -16.973000      8.091000      7.570000
C         -14.869000      4.838000      8.565000
C         -20.888000      6.697000     11.204000
C         -15.618000      3.364000     10.779000
C         -20.806000      4.450000     11.202000
C         -16.291000      4.369000     12.662000
C         -17.705000      2.786000      8.030000
C         -15.980000      2.866000      9.515000
C         -20.414000      4.937000      7.703000
C         -20.947000      6.997000      8.819000
C         -17.481000      6.425000     13.223000
C         -18.173000      2.285000     10.356000
C         -14.495000      6.672000      9.812000
C         -18.051000      8.757000     11.712000
C         -15.317000      6.588000     12.076000
C         -21.293000      6.233000      9.950000
C         -19.547000      5.658000     12.865000
O         -10.747000      6.368000     -1.480000
C         -11.336000      7.367000     -2.331000
H         -12.049000      7.948000     -1.732000
H         -11.897000      6.799000     -3.082000
H         -10.574000      8.031000     -2.759000
O         -12.825000      5.823000     -0.407000
C         -11.609000      5.586000     -0.654000
C         -10.789000      4.542000      0.028000
H         -10.194000      4.968000      0.845000
H         -10.162000      4.059000     -0.732000
C         -11.605000      3.425000      0.758000
H         -12.024000      3.832000      1.687000
H         -12.414000      3.130000      0.079000
C         -10.735000      2.136000      1.018000
H         -10.451000      1.716000      0.046000
H          -9.819000      2.512000      1.490000
C         -11.363000      1.120000      2.032000
C         -12.517000      0.393000      1.390000
C         -12.352000     -0.798000      0.651000
H         -11.339000     -1.187000      0.688000
C         -13.401000     -1.358000     -0.077000
H         -13.223000     -2.371000     -0.425000
C         -14.684000     -0.819000      0.029000
H         -15.496000     -1.404000     -0.393000
C         -14.876000      0.372000      0.709000
H         -15.866000      0.804000      0.818000
C         -13.814000      0.956000      1.413000
H         -14.098000      1.763000      2.083000
C         -13.663000      0.605000      6.903000
C         -12.792000     -1.640000      6.407000
C          -9.351000     -1.558000      9.360000
C          -9.885000      4.081000      6.451000
C          -6.917000     -0.717000      7.058000
C         -13.411000     -0.463000      5.975000
C          -7.529000      2.833000      7.192000
C         -11.616000     -0.737000      9.534000
C          -9.556000     -1.415000      4.021000
C          -9.063000      3.619000      5.490000
C         -10.532000      0.496000      3.104000
C          -8.532000     -0.471000      3.905000
C          -7.624000      1.921000      4.919000
C          -6.898000      1.615000      7.602000
C         -11.921000     -1.131000      4.408000
C          -7.697000     -0.009000      9.196000
C         -11.482000      1.590000      3.448000
C         -10.907000      2.810000      4.152000
C          -7.473000     -1.057000      8.244000
C         -10.729000      2.713000      9.492000
C          -9.789000      0.758000     10.193000
C         -11.159000      0.502000     10.066000
C         -12.680000     -0.778000      8.675000
C         -11.802000      3.176000      5.173000
C         -10.775000     -0.852000      3.661000
C         -12.469000     -1.875000      7.796000
C          -7.869000      2.967000      5.815000
C         -11.897000     -2.079000      5.424000
C          -7.540000     -0.484000      4.881000
C         -11.739000      3.544000      7.552000
C         -10.682000     -1.764000      9.188000
C          -9.068000      0.758000      3.404000
C         -12.812000      1.693000      8.717000
C          -6.960000      0.729000      5.319000
C          -9.552000     -2.407000      5.057000
C          -8.320000      2.368000      9.234000
C          -8.343000      3.362000      8.230000
C          -8.469000     -2.411000      5.999000
C         -11.261000      3.775000      6.314000
C          -9.553000      2.986000      4.393000
C         -10.731000      3.708000      8.503000
C         -12.590000      1.234000      4.356000
C         -10.392000     -2.954000      7.118000
C          -8.675000      1.988000      3.998000
C          -7.467000     -1.399000      5.917000
C         -12.778000      2.625000      7.638000
C          -8.455000     -2.080000      8.346000
C         -13.280000      0.446000      8.231000
C          -8.910000     -0.314000      9.819000
C         -10.703000     -2.794000      5.768000
C          -8.998000     -2.711000      7.226000
C         -12.887000     -0.108000      4.750000
C         -12.767000      2.184000      5.280000
C          -9.542000      2.084000      9.915000
C         -11.289000     -2.505000      8.110000
C          -6.610000      0.588000      6.709000
C          -9.532000      3.978000      7.830000
C          -7.450000      1.325000      8.847000
C         -13.350000      1.907000      6.554000
C         -11.716000      1.709000      9.636000
$end

--------------------------------------------------------------

             Standard Nuclear Orientation (Angstroms)
    I     Atom           X                Y                Z
 ----------------------------------------------------------------
    1      O     -10.6289340743     3.4766096213     1.0368363608
    2      C     -12.0014209021     3.9817213219     1.0927566410
    3      H     -12.3795155376     4.0986941228     2.1154940513
    4      H     -12.7364144738     3.2465531756     0.7414715058
    5      H     -12.0841977139     4.9023707780     0.5011126785
    6      O      -9.6864665936     5.4658301148     1.8350737164
    7      C      -9.5602070330     4.3004661833     1.4217270939
    8      C      -8.1955217571     3.6862574947     1.2515484092
    9      H      -8.0928055864     3.2521936189     0.2486087599
   10      H      -8.0147005599     3.0139144250     2.0997391256
   11      C      -7.0186953034     4.7200727748     1.3080326051
   12      H      -7.0510796116     5.3720256748     0.4265442769
   13      H      -7.0035455756     5.3339113333     2.2176625902
   14      C      -5.6240885552     3.9504714955     1.1988772624
   15      H      -4.8918243845     4.7474980099     1.3787853494
   16      H      -5.4615566047     3.3181754219     2.0808132239
   17      C      -5.4390158788     3.0595512681    -0.1462153935
   18      C      -5.5776481928     3.8589629457    -1.4223216004
   19      C      -6.7424564054     3.9281084299    -2.1643086149
   20      H      -7.5933614149     3.2732764094    -1.9985476733
   21      C      -6.7751913812     4.7720672146    -3.2749750775
   22      H      -7.7211981899     4.8220998938    -3.8064991586
   23      C      -5.7120366712     5.6619452383    -3.5145834362
   24      H      -5.7712322366     6.4668109723    -4.2404959897
   25      C      -4.5223617298     5.5740134235    -2.7950846316
   26      H      -3.7107990051     6.2573959296    -3.0298894317
   27      C      -4.4997829353     4.6704577245    -1.7351533618
   28      H      -3.6431432788     4.7110264693    -1.0696184823
   29      C      -6.5549367814    -1.7033072083    -2.7506765033
   30      C      -4.3004988290    -1.2497113431    -3.5103147789
   31      C      -2.3777685775    -4.5808125563    -0.9880072864
   32      C      -7.0047001815    -1.6364385863     2.4169931331
   33      C      -1.3591450895    -2.4015974796     1.6237336731
   34      C      -5.5788347282    -0.7834189891    -3.1605294599
   35      C      -4.4615839368    -2.5465367772     3.4067734366
   36      C      -4.4028878390    -4.5186574041    -2.2173073773
   37      C      -2.4085967187     0.7846130531    -0.6105319153
   38      C      -6.0541052380    -0.7182588135     2.8722965026
   39      C      -4.4275985383     1.8440595783    -0.0342336305
   40      C      -2.4568636070     0.8665316454     0.7757861044
   41      C      -3.8119724695    -0.2530144862     2.9783642370
   42      C      -3.2078958773    -3.0185085280     3.0938422686
   43      C      -4.0629874030     0.6914797771    -2.3022028812
   44      C      -2.4924599251    -4.5235576763     1.3249554832
   45      C      -5.8786985172     1.5418785968    -0.1679142416
   46      C      -6.5704705999     0.7977016013     0.9684254898
   47      C      -1.4739134966    -3.5883883558     0.9342848868
   48      C      -6.4425329831    -4.5704070014     0.6069673376
   49      C      -4.4381481940    -5.3525867578     0.0243856303
   50      C      -5.1207909692    -5.0557602105    -1.1335266471
   51      C      -4.9992757474    -3.5336229708    -2.9951104552
   52      C      -7.4318860208    -0.2322142470     0.4860285390
   53      C      -3.5816724968     1.3025140124    -1.1539284695
   54      C      -4.0300509220    -2.6230365046    -3.4722105762
   55      C      -4.7823600540    -1.1779731145     3.3523474877
   56      C      -3.3935718857    -0.3090706938    -2.9304055718
   57      C      -1.8490984991    -0.2022917799     1.5207720501
   58      C      -7.7849509521    -2.5575231479     0.4988998181
   59      C      -3.0611766051    -4.2494161814    -2.1234397636
   60      C      -3.7188639610     1.3664982002     1.1502330972
   61      C      -6.9834370197    -3.6024709563    -1.5536528594
   62      C      -2.5385657162    -0.7564052789     2.5878185283
   63      C      -1.7570863663    -0.2368080094    -1.2330054277
   64      C      -4.6914334963    -4.4729056013     2.2711915005
   65      C      -5.3643422912    -3.4542026770     2.9369745776
   66      C      -1.1128466471    -1.2758094058    -0.5132434654
   67      C      -7.7837782210    -1.3820630645     1.2284189864
   68      C      -5.7962651425     0.4585068937     2.1356229280
   69      C      -7.1507157607    -3.5152175598     1.2406181846
   70      C      -6.3093793459     0.7528300255    -1.3557498261
   71      C      -1.8306544908    -2.1401887793    -2.4345620746
   72      C      -4.4326313279     0.7216063515     2.1614781959
   73      C      -1.1819189509    -1.2395912464     0.9023423715
   74      C      -7.6318825833    -2.5633548337    -0.9126458121
   75      C      -1.4822178514    -3.6003585335    -0.5019622202
   76      C      -6.3115524139    -3.0658174571    -2.6619303961
   77      C      -3.0274037393    -5.1074875818     0.0893123385
   78      C      -2.1617226664    -0.7878946649    -2.4704576340
   79      C      -1.1901637923    -2.4393441920    -1.2391827607
   80      C      -5.4371635486     0.3682292331    -2.3851607418
   81      C      -7.2772089322    -0.1853273405    -0.9426098394
   82      C      -5.2547937791    -5.0364790676     1.0851277839
   83      C      -2.8087969280    -3.0814502451    -2.9190094150
   84      C      -2.2063912728    -2.0925372641     2.7138005004
   85      C      -6.6493091875    -2.9873463356     2.4644851786
   86      C      -3.3527824721    -4.1865637075     2.3832305798
   87      C      -7.3953643686    -1.3986962521    -1.6471296597
   88      C      -6.3825770715    -4.5783104904    -0.7865012926
   89      O       3.6355401311     8.2407926201     3.5759576650
   90      C       2.8127845752     9.3622619554     3.9427039333
   91      H       1.7789409144     9.0079687938     4.0445599133
   92      H       2.8634122923    10.0393337921     3.0822641839
   93      H       3.1495635451     9.8179933405     4.8827107577
   94      O       2.0328194666     7.3668300133     2.0158570805
   95      C       3.1902347943     7.3882343369     2.5215898303
   96      C       4.2619769673     6.3887761059     2.2389027965
   97      H       4.3019066644     5.6121509946     3.0123684103
   98      H       5.2111843419     6.9318080065     2.1486824280
   99      C       4.0631862229     5.5491762922     0.9342958086
  100      H       3.2813537522     4.7979320868     1.1034736191
  101      H       3.7471519892     6.2503084703     0.1525778084
  102      C       5.4121504993     4.8968394183     0.4436095707
  103      H       6.1042411187     5.7051125622     0.1798955222
  104      H       5.8173600714     4.3989352505     1.3330547024
  105      C       5.2385698493     3.7794969776    -0.6409417780
  106      C       4.8808206897     4.3969213670    -1.9688015832
  107      C       5.8532869818     4.8270112710    -2.8967881053
  108      H       6.8665258638     4.5682538220    -2.6048111360
  109      C       5.5062316536     5.5499153130    -4.0373788930
  110      H       6.2963397033     5.6395666639    -4.7767359820
  111      C       4.1605924302     5.7401279247    -4.3550583585
  112      H       3.9427867650     6.1297190947    -5.3452262293
  113      C       3.1807515328     5.3707061729    -3.4488661133
  114      H       2.1269399555     5.4947271063    -3.6784417384
  115      C       3.5304607926     4.6744909324    -2.2837464747
  116      H       2.6943313412     4.2429341732    -1.7401921497
  117      C       2.5364997604    -0.7269820385    -1.9341278094
  118      C       4.6004629126    -0.8589387818    -3.2635357694
  119      C       6.5840405914    -4.1613137262    -0.8703886116
  120      C       3.7050995653    -0.0405159741     3.0381254865
  121      C       8.5975714470    -2.0833965795     1.0160882171
  122      C       3.5545036743    -0.0991172041    -2.7308497062
  123      C       6.0970656710    -1.3504265944     3.5071172946
  124      C       4.2844871749    -3.8414843219    -1.5369508645
  125      C       7.6152133571     1.0559541375    -1.4034868817
  126      C       4.8454722267     0.6748211935     3.0603049761
  127      C       5.9914729955     2.4939611345    -0.5426796357
  128      C       7.9293645950     1.2361324006    -0.0536673407
  129      C       7.0731813920     0.6582333332     2.4972750324
  130      C       7.1807024492    -2.0996243338     2.9465648171
  131      C       5.4852404190     1.0657081531    -2.5378457940
  132      C       7.0723694910    -3.8875422965     1.3315644056
  133      C       4.5437166968     2.5308338922    -0.1958164072
  134      C       4.1513564891     2.0403921049     1.1898824492
  135      C       8.0626853822    -3.2282967401     0.5319058960
  136      C       3.0728070212    -3.1640760359     1.7438999732
  137      C       4.7440518390    -4.3981726903     0.8052987764
  138      C       3.8288033164    -4.1455547711    -0.2228399928
  139      C       3.6669666168    -2.8760535524    -2.2841254021
  140      C       2.9922727814     1.2559323812     1.0536110274
  141      C       6.4182112412     1.6929448077    -1.7100139125
  142      C       4.6568967874    -2.2963237993    -3.1234838896
  143      C       6.0806590152     0.0555034639     3.2773859452
  144      C       5.7912421731    -0.1272157399    -3.1819199451
  145      C       8.4919159021     0.1555950348     0.6192249450
  146      C       2.2692044426    -0.9702045022     1.6197565509
  147      C       5.6825961653    -3.8595435747    -1.8398800878
  148      C       6.9367782273     2.0627541816     0.5629417201
  149      C       2.1722867807    -2.3562705794    -0.3812888750
  150      C       8.1709053781    -0.0800790884     1.9760679540
  151      C       7.9251217141    -0.1632335103    -2.0926271356
  152      C       5.2410210717    -3.3178255025     2.8682126223
  153      C       4.9072646774    -2.1265329206     3.5508616196
  154      C       8.5630617559    -1.2213103588    -1.3620281445
  155      C       2.8153894130     0.2116022476     1.9654497446
  156      C       5.0713630888     1.6622506670     2.1557861243
  157      C       2.7515982150    -1.9899084116     2.4412559030
  158      C       3.6455187879     1.7259893195    -1.0468920384
  159      C       7.0713999170    -2.1603319702    -2.8242601274
  160      C       6.4204769247     1.7055042737     1.8380850329
  161      C       8.8136504483    -1.0560636822     0.0325222645
  162      C       1.9363336708    -1.1138739306     0.2781030395
  163      C       7.8293574173    -3.4179972436    -0.8576367553
  164      C       2.6127222594    -2.0969026439    -1.7037766304
  165      C       6.1302703889    -4.3915873750     0.4310585252
  166      C       7.0570740684    -0.7787190127    -3.0133669909
  167      C       8.0175095529    -2.4007081245    -1.7941898087
  168      C       4.0648946079     1.0911010602    -2.2574496867
  169      C       2.7539486383     1.0658968815    -0.3005773316
  170      C       4.2662061013    -3.8720720494     1.9848964055
  171      C       5.8713002840    -2.8982830667    -2.8981725763
  172      C       8.1960641740    -1.5014636464     2.2073988278
  173      C       3.7140477523    -1.4433393044     3.3005481112
  174      C       6.6069974299    -3.2910921654     2.5105648661
  175      C       2.1414348053    -0.1465227769    -0.7416661845
  176      C       2.8148757105    -3.3895027983     0.3707374869
 ----------------------------------------------------------------

   10   -5804.2617379257      2.47E-06 Convergence criterion met
 Total energy in the final basis set = -5804.2617379257

                    Orbital Energies (a.u.)
 --------------------------------------------------------------

 Alpha MOs
 -- Occupied --
-19.192 -19.191 -19.149 -19.135 -10.330 -10.320 -10.249 -10.246
-10.245 -10.242 -10.240 -10.237 -10.237 -10.236 -10.231 -10.230
-10.229 -10.227 -10.223 -10.223 -10.222 -10.222 -10.222 -10.221
-10.221 -10.221 -10.220 -10.220 -10.220 -10.220 -10.220 -10.220
-10.220 -10.219 -10.219 -10.219 -10.219 -10.219 -10.219 -10.219
-10.219 -10.218 -10.217 -10.217 -10.217 -10.217 -10.217 -10.217
-10.216 -10.216 -10.216 -10.216 -10.216 -10.216 -10.216 -10.215
-10.215 -10.215 -10.215 -10.215 -10.214 -10.214 -10.214 -10.214
-10.214 -10.214 -10.214 -10.214 -10.214 -10.214 -10.214 -10.213
-10.213 -10.213 -10.213 -10.213 -10.213 -10.213 -10.213 -10.213
-10.213 -10.212 -10.212 -10.212 -10.212 -10.212 -10.212 -10.211
-10.211 -10.211 -10.211 -10.211 -10.211 -10.211 -10.211 -10.211
-10.210 -10.210 -10.210 -10.210 -10.210 -10.210 -10.210 -10.209
-10.209 -10.209 -10.209 -10.209 -10.209 -10.209 -10.209 -10.209
-10.209 -10.209 -10.209 -10.209 -10.209 -10.209 -10.209 -10.208
-10.208 -10.208 -10.208 -10.208 -10.207 -10.207 -10.207 -10.207
-10.206 -10.206 -10.206 -10.206 -10.205 -10.204 -10.204 -10.204
-10.201 -10.200 -10.199 -10.199 -10.198 -10.198 -10.198 -10.197
-10.196 -10.196 -10.196 -10.196  -1.071  -1.071  -1.001  -0.997
 -0.984  -0.984  -0.966  -0.966  -0.965  -0.964  -0.960  -0.960
 -0.936  -0.933  -0.930  -0.927  -0.925  -0.925  -0.924  -0.923
 -0.920  -0.919  -0.898  -0.897  -0.891  -0.890  -0.886  -0.885
 -0.876  -0.873  -0.856  -0.855  -0.844  -0.842  -0.840  -0.840
 -0.837  -0.835  -0.819  -0.816  -0.804  -0.799  -0.799  -0.799
 -0.798  -0.796  -0.794  -0.794  -0.790  -0.789  -0.785  -0.782
 -0.772  -0.771  -0.770  -0.768  -0.768  -0.766  -0.763  -0.763
 -0.756  -0.750  -0.742  -0.737  -0.730  -0.729  -0.718  -0.717
 -0.715  -0.715  -0.714  -0.713  -0.711  -0.710  -0.709  -0.709
 -0.707  -0.707  -0.706  -0.704  -0.698  -0.698  -0.674  -0.670
 -0.660  -0.659  -0.657  -0.657  -0.647  -0.645  -0.633  -0.629
 -0.628  -0.626  -0.625  -0.624  -0.621  -0.620  -0.617  -0.617
 -0.616  -0.613  -0.613  -0.612  -0.611  -0.611  -0.610  -0.607
 -0.606  -0.606  -0.603  -0.603  -0.568  -0.565  -0.562  -0.561
 -0.559  -0.559  -0.557  -0.557  -0.556  -0.555  -0.552  -0.550
 -0.535  -0.535  -0.532  -0.532  -0.531  -0.528  -0.525  -0.525
 -0.523  -0.523  -0.521  -0.520  -0.518  -0.517  -0.515  -0.513
 -0.505  -0.504  -0.501  -0.495  -0.493  -0.490  -0.489  -0.486
 -0.485  -0.483  -0.481  -0.481  -0.480  -0.477  -0.476  -0.473
 -0.471  -0.471  -0.470  -0.469  -0.469  -0.468  -0.467  -0.466
 -0.465  -0.465  -0.463  -0.462  -0.462  -0.460  -0.459  -0.458
 -0.456  -0.456  -0.452  -0.451  -0.447  -0.445  -0.445  -0.443
 -0.443  -0.443  -0.440  -0.439  -0.437  -0.436  -0.433  -0.432
 -0.431  -0.431  -0.430  -0.429  -0.427  -0.427  -0.424  -0.423
 -0.422  -0.422  -0.421  -0.420  -0.420  -0.419  -0.419  -0.417
 -0.417  -0.417  -0.416  -0.416  -0.415  -0.414  -0.414  -0.413
 -0.411  -0.410  -0.407  -0.407  -0.404  -0.399  -0.397  -0.395
 -0.394  -0.393  -0.392  -0.390  -0.386  -0.385  -0.385  -0.378
 -0.376  -0.375  -0.373  -0.369  -0.369  -0.368  -0.366  -0.364
 -0.363  -0.363  -0.362  -0.360  -0.360  -0.359  -0.359  -0.357
 -0.356  -0.356  -0.354  -0.354  -0.353  -0.352  -0.351  -0.351
 -0.348  -0.348  -0.347  -0.346  -0.346  -0.344  -0.343  -0.343
 -0.342  -0.342  -0.340  -0.340  -0.339  -0.337  -0.336  -0.335
 -0.333  -0.331  -0.331  -0.330  -0.328  -0.326  -0.325  -0.323
 -0.311  -0.302  -0.296  -0.296  -0.287  -0.286  -0.277  -0.273
 -0.271  -0.269  -0.269  -0.268  -0.267  -0.266  -0.264  -0.263
 -0.263  -0.262  -0.260  -0.259  -0.258  -0.257  -0.256  -0.252
 -0.251  -0.249  -0.247  -0.241  -0.221  -0.218  -0.214  -0.213
 -0.210  -0.208  -0.207  -0.206  -0.200  -0.193

          Ground-State Mulliken Net Atomic Charges

     Atom                 Charge (a.u.)
  ----------------------------------------
      1 O                    -0.488609
      2 C                    -0.080697
      3 H                     0.125615
      4 H                     0.122904
      5 H                     0.132366
      6 O                    -0.472885
      7 C                     0.601463
      8 C                    -0.250642
      9 H                     0.132253
     10 H                     0.141331
     11 C                    -0.184133
     12 H                     0.121082
     13 H                     0.120500
     14 C                    -0.202037
     15 H                     0.113556
     16 H                     0.105540
     17 C                    -0.002610
     18 C                     0.108869
     19 C                    -0.118045
     20 H                     0.099731
     21 C                    -0.092145
     22 H                     0.091576
     23 C                    -0.085289
     24 H                     0.088902
     25 C                    -0.083033
     26 H                     0.096841
     27 C                    -0.105395
     28 H                     0.092078
     29 C                    -0.000240
     30 C                    -0.006179
     31 C                     0.010916
     32 C                    -0.009369
     33 C                    -0.004095
     34 C                    -0.009670
     35 C                     0.021416
     36 C                     0.012470
     37 C                     0.034486
     38 C                    -0.010134
     39 C                    -0.099726
     40 C                    -0.031625
     41 C                    -0.026003
     42 C                    -0.014913
     43 C                     0.020125
     44 C                    -0.026934
     45 C                    -0.090458
     46 C                     0.014086
     47 C                     0.002513
     48 C                     0.003772
     49 C                    -0.007321
     50 C                    -0.003757
     51 C                    -0.013720
     52 C                     0.037917
     53 C                     0.032909
     54 C                     0.002500
     55 C                     0.002461
     56 C                    -0.000157
     57 C                    -0.011761
     58 C                     0.030715
     59 C                     0.018240
     60 C                     0.035191
     61 C                    -0.009061
     62 C                     0.012988
     63 C                    -0.001893
     64 C                    -0.000124
     65 C                    -0.014982
     66 C                    -0.003166
     67 C                    -0.038721
     68 C                    -0.011812
     69 C                    -0.006353
     70 C                     0.041357
     71 C                    -0.022654
     72 C                     0.021124
     73 C                     0.017370
     74 C                     0.014723
     75 C                    -0.009318
     76 C                    -0.002685
     77 C                    -0.003673
     78 C                    -0.011091
     79 C                     0.021048
     80 C                     0.007671
     81 C                    -0.020811
     82 C                     0.006027
     83 C                    -0.016831
     84 C                    -0.012865
     85 C                    -0.003752
     86 C                     0.027279
     87 C                    -0.017016
     88 C                     0.000288
     89 O                    -0.487350
     90 C                    -0.078891
     91 H                     0.133110
     92 H                     0.124015
     93 H                     0.126803
     94 O                    -0.479197
     95 C                     0.603652
     96 C                    -0.261725
     97 H                     0.149861
     98 H                     0.131147
     99 C                    -0.182339
    100 H                     0.113767
    101 H                     0.122971
    102 C                    -0.184786
    103 H                     0.110475
    104 H                     0.101257
    105 C                     0.007551
    106 C                     0.091597
    107 C                    -0.101828
    108 H                     0.085925
    109 C                    -0.098371
    110 H                     0.093132
    111 C                    -0.081814
    112 H                     0.091764
    113 C                    -0.086904
    114 H                     0.091167
    115 C                    -0.110190
    116 H                     0.094479
    117 C                    -0.012017
    118 C                     0.001484
    119 C                    -0.008303
    120 C                    -0.013822
    121 C                     0.006456
    122 C                    -0.005841
    123 C                    -0.025532
    124 C                     0.010334
    125 C                     0.002167
    126 C                    -0.004208
    127 C                    -0.115452
    128 C                     0.015991
    129 C                     0.007909
    130 C                     0.012367
    131 C                     0.005223
    132 C                    -0.024547
    133 C                    -0.073083
    134 C                     0.013791
    135 C                    -0.002222
    136 C                     0.031515
    137 C                     0.007520
    138 C                    -0.013343
    139 C                     0.005023
    140 C                    -0.002055
    141 C                     0.042262
    142 C                    -0.012452
    143 C                    -0.006377
    144 C                    -0.000288
    145 C                     0.011914
    146 C                     0.034599
    147 C                    -0.001663
    148 C                     0.010772
    149 C                    -0.031453
    150 C                    -0.036054
    151 C                    -0.009541
    152 C                    -0.007818
    153 C                     0.000811
    154 C                    -0.025038
    155 C                     0.008540
    156 C                     0.025186
    157 C                    -0.030498
    158 C                     0.055124
    159 C                     0.009591
    160 C                    -0.008444
    161 C                     0.002008
    162 C                    -0.002903
    163 C                    -0.006068
    164 C                     0.010973
    165 C                     0.018038
    166 C                    -0.018624
    167 C                     0.025227
    168 C                    -0.000344
    169 C                    -0.005797
    170 C                    -0.018522
    171 C                    -0.000729
    172 C                    -0.004675
    173 C                     0.005687
    174 C                     0.021785
    175 C                     0.008847
    176 C                    -0.008521
  ----------------------------------------
  Sum of atomic charges =     0.000000

                    Cartesian Multipole Moments
 -----------------------------------------------------------------
    Charge (ESU x 10^10)
                 0.0000
    Dipole Moment (Debye)
         X       0.2690      Y       4.0701      Z      -1.0159
       Tot       4.2036
    Quadrupole Moments (Debye-Ang)
        XX    -789.6491     XY      17.7194     YY    -792.5363
        XZ      10.1718     YZ      -6.4513     ZZ    -798.7483

 Total job time:  914.95s(wall), 8734.88s(cpu)
        *  Thank you very much for using Q-Chem.  Have a nice day.  *
