 Q-Chem 4.4, Q-Chem, Inc., Pleasanton, CA (2016)
 Q-Chem 4.4.2 for Intel X86 Linux

User input:
--------------------------------------------------------------
$comment
SP
$end

$rem
MEM_STATIC 5000
MEM_TOTAL 20000
JOBTYPE SP
EXCHANGE B3LYP
BASIS 6-31g(d,p)
$end

$molecule
0 1
O         -21.884000     -8.487000    -13.806000
C         -21.802000     -7.886000    -15.132000
H         -20.757000     -7.600000    -15.303000
H         -22.313000     -6.922000    -15.016000
H         -22.184000     -8.612000    -15.859000
O         -20.244000    -10.017000    -14.445000
C         -21.091000     -9.580000    -13.645000
C         -21.326000    -10.289000    -12.277000
H         -20.944000     -9.646000    -11.475000
H         -20.922000    -11.306000    -12.203000
C         -22.824000    -10.452000    -11.953000
H         -23.317000     -9.474000    -11.889000
H         -23.217000    -11.045000    -12.788000
C         -23.163000    -11.374000    -10.697000
H         -23.021000    -12.409000    -11.030000
H         -22.488000    -11.173000     -9.856000
C         -24.695000    -11.205000    -10.276000
C         -25.602000    -12.031000    -11.172000
C         -26.226000    -11.397000    -12.287000
H         -26.109000    -10.393000    -12.686000
C         -27.225000    -12.135000    -13.073000
H         -27.660000    -11.700000    -13.968000
C         -27.675000    -13.435000    -12.690000
H         -28.467000    -13.890000    -13.276000
C         -27.079000    -13.988000    -11.527000
H         -27.397000    -14.973000    -11.198000
C         -26.011000    -13.298000    -10.845000
H         -25.583000    -13.688000     -9.926000
C         -28.569000     -7.685000     -8.877000
C         -29.252000     -9.777000     -7.799000
C         -28.248000     -8.442000     -3.481000
C         -23.848000     -6.455000     -7.692000
C         -25.184000    -10.028000     -3.527000
C         -28.705000     -9.078000     -8.892000
C         -23.398000     -7.361000     -5.106000
C         -29.357000     -7.206000     -5.286000
C         -25.944000    -11.941000     -6.935000
C         -23.144000     -7.727000     -7.474000
C         -25.008000    -11.082000     -8.830000
C         -24.635000    -11.697000     -6.570000
C         -22.985000     -9.500000     -6.157000
C         -23.894000     -7.992000     -3.988000
C         -27.529000    -11.051000     -8.617000
C         -26.103000     -7.880000     -3.036000
C         -25.176000     -9.888000     -9.715000
C         -24.283000     -8.694000     -9.368000
C         -26.255000     -9.322000     -3.023000
C         -26.645000     -5.112000     -5.954000
C         -27.461000     -6.202000     -4.174000
C         -28.504000     -6.099000     -5.121000
C         -29.678000     -7.626000     -6.627000
C         -25.069000     -7.533000     -9.503000
C         -26.270000    -11.516000     -8.224000
C         -29.725000     -9.020000     -6.703000
C         -22.937000     -8.098000     -6.152000
C         -28.496000    -10.962000     -7.644000
C         -24.341000    -11.283000     -5.276000
C         -25.919000     -5.685000     -8.182000
C         -29.187000     -8.388000     -4.566000
C         -24.109000    -11.040000     -7.677000
C         -28.201000     -5.914000     -7.583000
C         -23.510000    -10.158000     -5.062000
C         -26.924000    -11.889000     -5.982000
C         -25.039000     -6.056000     -4.306000
C         -24.002000     -6.124000     -5.294000
C         -26.667000    -11.494000     -4.677000
C         -24.846000     -6.425000     -8.670000
C         -23.418000     -8.800000     -8.273000
C         -25.585000     -5.159000     -6.910000
C         -26.499000     -9.284000     -9.845000
C         -28.628000    -10.646000     -5.191000
C         -23.259000     -9.902000     -7.484000
C         -25.396000    -11.147000     -4.304000
C         -27.229000     -5.963000     -8.622000
C         -27.554000     -9.629000     -3.300000
C         -29.084000     -7.001000     -7.740000
C         -27.358000     -7.322000     -3.347000
C         -28.245000    -11.456000     -6.321000
C         -27.728000    -10.680000     -4.170000
C         -27.626000     -9.877000     -9.318000
C         -26.363000     -7.848000     -9.794000
C         -26.383000     -5.539000     -4.642000
C         -29.384000     -9.481000     -5.439000
C         -23.988000     -9.406000     -3.997000
C         -24.279000     -5.657000     -6.584000
C         -24.938000     -7.166000     -3.499000
C         -27.425000     -7.044000     -9.389000
C         -27.913000     -5.494000     -6.294000
O         -10.858000    -13.963000     -9.780000
C          -9.686000    -14.808000     -9.675000
H          -9.647000    -15.437000     -8.777000
H          -8.797000    -14.171000     -9.586000
H          -9.390000    -15.482000    -10.489000
O         -11.130000    -14.078000    -12.054000
C         -11.380000    -13.570000    -10.940000
C         -12.381000    -12.448000    -10.714000
H         -11.743000    -11.738000    -10.171000
H         -13.133000    -12.961000    -10.102000
C         -13.178000    -11.786000    -11.880000
H         -12.520000    -11.445000    -12.689000
H         -13.831000    -12.480000    -12.424000
C         -13.997000    -10.561000    -11.341000
H         -13.370000     -9.952000    -10.678000
H         -14.259000     -9.914000    -12.188000
C         -15.291000    -11.002000    -10.608000
C         -16.241000    -11.807000    -11.472000
C         -16.995000    -11.159000    -12.496000
H         -16.785000    -10.125000    -12.751000
C         -17.890000    -11.897000    -13.263000
H         -18.436000    -11.359000    -14.034000
C         -17.970000    -13.292000    -13.079000
H         -18.704000    -13.916000    -13.580000
C         -17.246000    -13.914000    -11.984000
H         -17.354000    -14.987000    -11.861000
C         -16.274000    -13.195000    -11.249000
H         -15.750000    -13.647000    -10.412000
C         -19.369000     -8.604000     -7.759000
C         -19.373000    -10.877000     -6.993000
C         -17.887000    -10.120000     -2.826000
C         -14.660000     -6.699000     -7.156000
C         -14.610000    -11.205000     -3.515000
C         -19.164000     -9.967000     -8.040000
C         -13.611000     -8.054000     -4.882000
C         -19.466000     -8.858000     -4.175000
C         -15.817000    -12.661000     -7.167000
C         -13.838000     -7.837000     -7.308000
C         -15.369000    -11.261000     -9.100000
C         -14.563000    -12.043000     -6.961000
C         -13.141000     -9.856000     -6.401000
C         -13.818000     -8.884000     -3.772000
C         -17.640000    -11.662000     -8.304000
C         -15.792000     -9.385000     -2.504000
C         -15.811000     -9.929000     -9.627000
C         -15.096000     -8.681000     -9.198000
C         -15.697000    -10.713000     -2.766000
C         -17.187000     -6.229000     -4.781000
C         -17.525000     -7.694000     -3.059000
C         -18.673000     -7.726000     -3.904000
C         -19.938000     -9.090000     -5.440000
C         -16.044000     -7.634000     -8.984000
C         -16.330000    -12.075000     -8.368000
C         -19.790000    -10.445000     -5.718000
C         -13.258000     -8.469000     -6.174000
C         -18.424000    -11.904000     -7.186000
C         -14.154000    -11.875000     -5.627000
C         -16.892000     -6.170000     -7.193000
C         -19.030000    -10.058000     -3.622000
C         -14.231000    -11.207000     -8.070000
C         -18.956000     -6.996000     -6.214000
C         -13.375000    -10.768000     -5.345000
C         -16.635000    -12.861000     -6.043000
C         -15.289000     -7.221000     -3.588000
C         -14.519000     -7.028000     -4.778000
C         -16.207000    -12.691000     -4.731000
C         -15.797000     -6.693000     -7.938000
C         -14.005000     -8.794000     -8.276000
C         -16.383000     -5.898000     -5.922000
C         -17.211000     -9.516000     -9.413000
C         -18.388000    -12.206000     -4.732000
C         -13.578000    -10.032000     -7.748000
C         -14.916000    -12.161000     -4.491000
C         -18.199000     -6.666000     -7.365000
C         -17.008000    -11.236000     -3.002000
C         -19.703000     -8.157000     -6.461000
C         -17.115000     -8.974000     -2.574000
C         -17.993000    -12.568000     -6.058000
C         -17.218000    -12.186000     -3.950000
C         -18.111000    -10.447000     -8.842000
C         -17.334000     -8.134000     -9.114000
C         -16.610000     -6.777000     -3.596000
C         -19.316000    -11.068000     -4.560000
C         -13.648000    -10.324000     -4.055000
C         -15.023000     -6.285000     -5.877000
C         -14.849000     -8.420000     -2.971000
C         -18.416000     -7.700000     -8.319000
C         -18.439000     -6.784000     -4.921000
$end

--------------------------------------------------------------

             Standard Nuclear Orientation (Angstroms)
    I     Atom           X                Y                Z
 ----------------------------------------------------------------
    1      O      -0.8126746493     5.5033676565     3.3923705442
    2      C      -0.7466691260     6.4877823535     4.4660427359
    3      H       0.2520211970     6.4232089787     4.9149412969
    4      H      -1.4012547100     6.0737650648     5.2432044938
    5      H      -0.9747835622     7.4717326016     4.0402085976
    6      O       1.0702224983     6.4883706582     2.4314915620
    7      C       0.1239510911     5.6803694412     2.4224109622
    8      C      -0.0793791098     4.7147134027     1.2159718859
    9      H       0.1568799986     3.6930371808     1.5368088090
   10      H       0.4667807619     4.9856051556     0.3042109234
   11      C      -1.5522153002     4.6416919561     0.7676746356
   12      H      -2.1881915126     4.2682687137     1.5799051073
   13      H      -1.8049255037     5.6760913555     0.5040870114
   14      C      -1.8201963070     3.8706559486    -0.6020810562
   15      H      -1.5071268886     4.5513358343    -1.4026686107
   16      H      -1.2310350010     2.9475967130    -0.6665605343
   17      C      -3.3815021826     3.5870600954    -0.7884230927
   18      C      -4.1035230058     4.8214817945    -1.3008974819
   19      C      -4.7512932878     5.6764844442    -0.3607266832
   20      H      -4.7628860494     5.6525439026     0.7256427100
   21      C      -5.5834332702     6.7866197997    -0.8460961736
   22      H      -6.0273460179     7.4935660324    -0.1513706909
   23      C      -5.8556068151     6.9731495340    -2.2354547377
   24      H      -6.5367841462     7.7700972693    -2.5157345098
   25      C      -5.2502429047     6.0465394221    -3.1234424835
   26      H      -5.4359800956     6.1496687428    -4.1885509470
   27      C      -4.3369854891     5.0426158721    -2.6335992448
   28      H      -3.9080354453     4.2974062434    -3.2973081186
   29      C      -7.8090379304     1.3973529317     1.4381407936
   30      C      -8.2323599639     1.2683516940    -0.9720861950
   31      C      -7.6828182439    -3.3162240468    -1.3112530774
   32      C      -3.3980858349    -0.6716803150     2.6495734314
   33      C      -4.4190888096    -3.0111516995    -2.3885687427
   34      C      -7.7349838485     1.9507295746     0.1546064996
   35      C      -2.9643033894    -2.7583611341     0.8695936706
   36      C      -8.8602646871    -2.0002956821     0.3909673584
   37      C      -4.6928265320     0.9274077771    -2.9028156761
   38      C      -2.5258696741    -0.4699637591     1.4835230895
   39      C      -3.7901433738     2.2447701862    -1.2734840956
   40      C      -3.4573888556     0.3567645973    -2.6697875466
   41      C      -2.1788830244    -1.0309466675    -0.6302880283
   42      C      -3.4228638524    -3.4949211388    -0.1987240075
   43      C      -6.2955847647     2.3125156800    -1.6198148404
   44      C      -5.6739053135    -4.1715560985    -0.7217024695
   45      C      -4.0840707111     2.6274496797     0.1422306092
   46      C      -3.3998098189     1.7609501993     1.2026360420
   47      C      -5.6099235464    -3.6237308410    -2.0627583300
   48      C      -6.4571746229    -2.4708163480     2.8788926882
   49      C      -7.2005158896    -3.6084852065     1.0968968044
   50      C      -8.1923012126    -2.6622364769     1.4378399299
   51      C      -9.0392060615    -0.5734684364     0.4902950761
   52      C      -4.3411149523     1.5336523249     2.2254861396
   53      C      -5.0054841351     1.9886476387    -2.0516769217
   54      C      -8.8737079331     0.0266764595    -0.7601678275
   55      C      -2.3405928738    -1.5689028690     0.6551636627
   56      C      -7.3182222651     1.4895692153    -2.0281170069
   57      C      -3.3015664971    -1.0216191353    -2.7594852519
   58      C      -5.5298026283    -0.2847823418     3.3038932852
   59      C      -8.5568716572    -2.2359338253    -0.9494994763
   60      C      -2.9737020757     1.0701353338    -1.5784932273
   61      C      -7.7822734822    -0.5002765883     2.5977040170
   62      C      -2.6607588164    -1.7330113951    -1.7177230099
   63      C      -5.7216627112     0.1382162091    -3.3386892649
   64      C      -4.8237294357    -3.8066010439     1.5621497115
   65      C      -3.7342690128    -2.9854125748     2.0035820224
   66      C      -5.6001571165    -1.2390878192    -3.4543136739
   67      C      -4.3328291107     0.3256676144     2.9410183080
   68      C      -2.5916299469     0.6991315405     0.7808867916
   69      C      -5.3499347944    -1.6894865982     3.3297682632
   70      C      -5.4728473571     2.6640205880     0.5916824935
   71      C      -7.6335447435    -0.8715090538    -2.7066228223
   72      C      -2.3148920697     0.3710883321    -0.5144933845
   73      C      -4.4180256556    -1.8517381436    -3.1346204003
   74      C      -6.7569460259     0.3677683175     3.0687747645
   75      C      -6.8310539639    -3.1113980383    -2.3863855890
   76      C      -8.4832830325     0.1500482105     1.5625372351
   77      C      -6.9785196875    -3.9585868490    -0.2361765342
   78      C      -7.0712430379     0.4312367103    -2.9642257453
   79      C      -6.7973738162    -1.8962009557    -3.0297662679
   80      C      -6.5267857551     2.5257161643    -0.2855818564
   81      C      -5.5553303394     2.0613307964     1.9005578018
   82      C      -6.2086962300    -3.5454696349     2.0095850319
   83      C      -8.5394739035    -0.9996441051    -1.6327798330
   84      C      -3.3045550710    -2.9437408234    -1.4989225662
   85      C      -4.0047508996    -1.9444256926     2.8991845347
   86      C      -4.6040724765    -4.1418535174     0.2457506082
   87      C      -6.7463090642     1.5019214046     2.3554377965
   88      C      -7.6329870825    -1.8756656910     2.5147378372
   89      O      10.6619068913     2.6583500012    -1.8998672632
   90      C      11.9389102521     2.7520504526    -2.5774487282
   91      H      12.0205997096     2.1586749176    -3.4965778307
   92      H      12.7166909787     2.3331308445    -1.9266227120
   93      H      12.3772957473     3.7223877372    -2.8434406671
   94      O      10.5383790114     4.8231830348    -1.1538620359
   95      C      10.1532611614     3.6343875886    -1.1507590272
   96      C       8.9852066873     3.1131875962    -0.3285909705
   97      H       9.4787860375     2.2765603846     0.1836856480
   98      H       8.2847902553     2.8255990761    -1.1222701657
   99      C       8.1653404230     4.0234528400     0.6369376383
  100      H       8.8096517255     4.5673147204     1.3389370689
  101      H       7.6546255505     4.8566113317     0.1379403970
  102      C       7.1440226215     3.1556530415     1.4528668376
  103      H       7.6350373933     2.2478871303     1.8249482052
  104      H       6.8366285115     3.7196916395     2.3428282531
  105      C       5.8909909538     2.7888378741     0.6152725009
  106      C       5.1215913180     3.9906097241     0.1045968494
  107      C       4.3382766698     4.7708290683     1.0071886381
  108      H       4.4059319027     4.5929674128     2.0758649226
  109      C       3.6077418097     5.8521272911     0.5264902176
  110      H       3.0319308391     6.4183338626     1.2544001327
  111      C       3.7261890989     6.2170847686    -0.8296282430
  112      H       3.1226633583     6.9931676819    -1.2906976435
  113      C       4.4720213188     5.3650369345    -1.7394819611
  114      H       4.5182966855     5.6678723969    -2.7807654351
  115      C       5.2832034628     4.3119215282    -1.2548156116
  116      H       5.8207746266     3.6550108899    -1.9322627735
  117      C       1.3476314731    -0.2897700075     1.2295583788
  118      C       1.6391525729    -0.1377527846    -1.1464061016
  119      C       2.7591263629    -4.4183487945    -1.8995930038
  120      C       5.6789286809    -2.0763861292     3.2826493002
  121      C       6.1946773161    -3.7337790055    -2.2445985863
  122      C       1.7688261659     0.4597480356     0.1161973710
  123      C       6.7884910178    -3.7723585734     1.2826365781
  124      C       1.0881595285    -3.4803432003    -0.4050357638
  125      C       5.4252952632     0.3059090840    -2.2980812618
  126      C       6.6684879705    -1.5976788748     2.3963966405
  127      C       5.7677618294     1.5077416325    -0.2158929475
  128      C       6.5596712747    -0.2533465659    -1.6677637365
  129      C       7.6063081946    -1.7476098126     0.2791264780
  130      C       6.6453338668    -4.4581651138     0.0689544041
  131      C       3.5406907067     1.1746197639    -1.1545313416
  132      C       4.6998267687    -5.2202411693    -1.1099193028
  133      C       5.1626436454     1.5390494882     1.1552995268
  134      C       5.6585208024     0.5962209816     2.2126311930
  135      C       5.0061430324    -4.4893700592    -2.2113959330
  136      C       2.9806018317    -4.1621289015     2.4978160041
  137      C       2.7682787540    -5.1573971646     0.4508394544
  138      C       1.6872039773    -4.2426548047     0.6166005542
  139      C       0.7278692454    -2.1777507352    -0.1808109179
  140      C       4.5546357913     0.1085220578     2.9770241822
  141      C       4.8990945349     1.2459782544    -1.3555587166
  142      C       1.0914306966    -1.4277799759    -1.2946241570
  143      C       7.2714531228    -2.4661066844     1.4455832180
  144      C       2.7398650923     0.3229857317    -1.9005486407
  145      C       6.8634172539    -1.5884215738    -1.9845824597
  146      C       3.3986866020    -1.9978267047     3.5221456023
  147      C       1.6662318463    -3.5846351309    -1.6663289845
  148      C       6.8252842577     0.4156268155    -0.4345057107
  149      C       1.4289849295    -2.3618044513     2.1478790630
  150      C       7.4517452419    -2.3499055390    -0.9916945761
  151      C       4.5843103360    -0.5633513804    -3.0119654241
  152      C       4.9350581573    -5.0931815063     1.3476166656
  153      C       5.7334092838    -4.1553294103     2.0751590526
  154      C       4.9077532342    -1.8810177035    -3.3162155725
  155      C       4.5995111155    -1.2351116986     3.4599740079
  156      C       6.7005891728    -0.3285067261     1.8778085863
  157      C       3.7892099030    -3.3250472264     3.3364489729
  158      C       3.7069526984     1.3395394253     1.2876800447
  159      C       2.6823897284    -1.8245702225    -3.1250142408
  160      C       7.2768419033    -0.3945045800     0.5904337094
  161      C       6.0898522867    -2.4424421938    -2.7752669874
  162      C       2.1919037268    -1.5100137108     2.9840354138
  163      C       3.8030315389    -3.9320773819    -2.7498136203
  164      C       0.8783234976    -1.6156704084     1.0957407748
  165      C       3.3364218991    -5.1661625727    -0.8602141427
  166      C       3.2008341700    -0.5115942766    -2.8955484995
  167      C       3.7905139147    -2.6792429283    -3.2747451786
  168      C       2.9249871601     1.2632861027     0.1106000441
  169      C       3.3628700600     0.5573500482     2.4209235827
  170      C       3.5652262301    -5.1087845013     1.6036597046
  171      C       1.5870577242    -2.3100971747    -2.2588021541
  172      C       7.0435559483    -3.6739795929    -1.1180844506
  173      C       5.1869740940    -3.3692106521     3.1226760603
  174      C       5.5133315816    -5.2571592801     0.0628594370
  175      C       2.1853238983    -0.2192537689     2.3838217201
  176      C       1.8351055737    -3.6875349440     1.8997124191
 ----------------------------------------------------------------

    9   -5804.2412995371      9.16E-06 Convergence criterion met
 Total energy in the final basis set = -5804.2412995371

                    Orbital Energies (a.u.)
 --------------------------------------------------------------

 Alpha MOs
 -- Occupied --
-19.210 -19.202 -19.147 -19.125 -10.331 -10.316 -10.256 -10.251
-10.242 -10.241 -10.240 -10.237 -10.235 -10.233 -10.231 -10.229
-10.227 -10.226 -10.225 -10.225 -10.224 -10.223 -10.222 -10.221
-10.220 -10.220 -10.220 -10.220 -10.219 -10.219 -10.219 -10.218
-10.218 -10.218 -10.218 -10.218 -10.218 -10.217 -10.217 -10.217
-10.217 -10.217 -10.217 -10.217 -10.217 -10.217 -10.216 -10.216
-10.216 -10.216 -10.216 -10.216 -10.216 -10.216 -10.216 -10.216
-10.216 -10.216 -10.216 -10.215 -10.215 -10.215 -10.215 -10.215
-10.215 -10.215 -10.214 -10.214 -10.214 -10.214 -10.214 -10.214
-10.214 -10.214 -10.214 -10.213 -10.213 -10.213 -10.213 -10.213
-10.213 -10.213 -10.213 -10.213 -10.213 -10.213 -10.212 -10.212
-10.212 -10.212 -10.212 -10.212 -10.212 -10.212 -10.212 -10.211
-10.211 -10.211 -10.211 -10.211 -10.211 -10.211 -10.211 -10.210
-10.210 -10.210 -10.210 -10.210 -10.210 -10.210 -10.210 -10.210
-10.210 -10.210 -10.209 -10.209 -10.209 -10.209 -10.209 -10.209
-10.209 -10.208 -10.208 -10.208 -10.208 -10.208 -10.208 -10.208
-10.207 -10.207 -10.207 -10.207 -10.207 -10.206 -10.206 -10.205
-10.205 -10.205 -10.205 -10.204 -10.203 -10.201 -10.200 -10.199
-10.197 -10.196 -10.195 -10.191  -1.102  -1.097  -1.013  -0.992
 -0.986  -0.982  -0.968  -0.965  -0.964  -0.963  -0.962  -0.961
 -0.937  -0.933  -0.930  -0.927  -0.926  -0.926  -0.924  -0.922
 -0.921  -0.919  -0.900  -0.896  -0.890  -0.890  -0.885  -0.885
 -0.878  -0.872  -0.848  -0.846  -0.842  -0.839  -0.838  -0.837
 -0.836  -0.836  -0.821  -0.819  -0.804  -0.801  -0.800  -0.797
 -0.797  -0.796  -0.793  -0.793  -0.790  -0.790  -0.784  -0.781
 -0.772  -0.771  -0.770  -0.769  -0.765  -0.764  -0.764  -0.762
 -0.750  -0.744  -0.743  -0.738  -0.735  -0.731  -0.721  -0.717
 -0.715  -0.714  -0.714  -0.713  -0.711  -0.710  -0.710  -0.709
 -0.706  -0.705  -0.704  -0.704  -0.702  -0.702  -0.677  -0.673
 -0.659  -0.659  -0.657  -0.656  -0.648  -0.648  -0.633  -0.633
 -0.628  -0.626  -0.624  -0.623  -0.622  -0.619  -0.617  -0.617
 -0.615  -0.614  -0.613  -0.612  -0.610  -0.608  -0.607  -0.606
 -0.605  -0.603  -0.603  -0.602  -0.572  -0.571  -0.566  -0.564
 -0.560  -0.560  -0.559  -0.558  -0.557  -0.557  -0.554  -0.552
 -0.538  -0.536  -0.533  -0.532  -0.529  -0.526  -0.525  -0.525
 -0.524  -0.523  -0.519  -0.517  -0.515  -0.513  -0.513  -0.512
 -0.507  -0.502  -0.502  -0.501  -0.495  -0.492  -0.492  -0.487
 -0.486  -0.485  -0.484  -0.482  -0.481  -0.479  -0.478  -0.475
 -0.474  -0.473  -0.470  -0.469  -0.468  -0.467  -0.467  -0.466
 -0.465  -0.464  -0.464  -0.463  -0.463  -0.462  -0.459  -0.457
 -0.455  -0.453  -0.453  -0.452  -0.452  -0.447  -0.444  -0.442
 -0.441  -0.440  -0.439  -0.438  -0.436  -0.435  -0.433  -0.432
 -0.432  -0.431  -0.428  -0.427  -0.427  -0.426  -0.424  -0.424
 -0.423  -0.422  -0.421  -0.420  -0.419  -0.418  -0.418  -0.417
 -0.416  -0.415  -0.414  -0.414  -0.413  -0.413  -0.412  -0.412
 -0.411  -0.410  -0.409  -0.405  -0.401  -0.400  -0.400  -0.397
 -0.395  -0.391  -0.391  -0.388  -0.387  -0.387  -0.385  -0.384
 -0.381  -0.376  -0.372  -0.370  -0.369  -0.369  -0.367  -0.366
 -0.365  -0.365  -0.363  -0.361  -0.360  -0.358  -0.358  -0.356
 -0.355  -0.355  -0.355  -0.354  -0.353  -0.353  -0.351  -0.350
 -0.350  -0.349  -0.348  -0.346  -0.346  -0.345  -0.344  -0.343
 -0.340  -0.340  -0.340  -0.338  -0.338  -0.337  -0.335  -0.333
 -0.333  -0.329  -0.328  -0.328  -0.327  -0.326  -0.326  -0.325
 -0.316  -0.312  -0.307  -0.294  -0.288  -0.287  -0.275  -0.275
 -0.270  -0.269  -0.269  -0.266  -0.264  -0.264  -0.262  -0.262
 -0.260  -0.259  -0.257  -0.257  -0.256  -0.254  -0.254  -0.252
 -0.249  -0.247  -0.244  -0.241  -0.222  -0.219  -0.212  -0.211
 -0.209  -0.207  -0.205  -0.203  -0.201  -0.200

          Ground-State Mulliken Net Atomic Charges

     Atom                 Charge (a.u.)
  ----------------------------------------
      1 O                    -0.455662
      2 C                    -0.088437
      3 H                     0.139068
      4 H                     0.129397
      5 H                     0.140204
      6 O                    -0.487981
      7 C                     0.605512
      8 C                    -0.252692
      9 H                     0.136179
     10 H                     0.133037
     11 C                    -0.192986
     12 H                     0.121254
     13 H                     0.107807
     14 C                    -0.201478
     15 H                     0.115141
     16 H                     0.110225
     17 C                     0.028239
     18 C                     0.086608
     19 C                    -0.113679
     20 H                     0.099030
     21 C                    -0.104800
     22 H                     0.088723
     23 C                    -0.075609
     24 H                     0.097867
     25 C                    -0.096715
     26 H                     0.093924
     27 C                    -0.112349
     28 H                     0.089733
     29 C                    -0.007470
     30 C                     0.004842
     31 C                    -0.034141
     32 C                    -0.029566
     33 C                     0.021253
     34 C                    -0.019370
     35 C                     0.038432
     36 C                    -0.005437
     37 C                     0.024885
     38 C                    -0.029350
     39 C                    -0.100823
     40 C                     0.014502
     41 C                    -0.020115
     42 C                    -0.020050
     43 C                     0.016220
     44 C                    -0.018539
     45 C                    -0.091969
     46 C                     0.011140
     47 C                     0.005816
     48 C                    -0.015140
     49 C                     0.040863
     50 C                    -0.032221
     51 C                    -0.011814
     52 C                     0.003784
     53 C                     0.046183
     54 C                     0.003160
     55 C                     0.018308
     56 C                     0.000263
     57 C                    -0.019263
     58 C                     0.008375
     59 C                     0.000691
     60 C                     0.017574
     61 C                    -0.015595
     62 C                     0.004652
     63 C                    -0.010498
     64 C                    -0.008028
     65 C                    -0.008338
     66 C                    -0.000869
     67 C                     0.001240
     68 C                     0.062307
     69 C                    -0.000965
     70 C                     0.044883
     71 C                    -0.012543
     72 C                    -0.029169
     73 C                    -0.021855
     74 C                    -0.015200
     75 C                     0.012355
     76 C                     0.011271
     77 C                     0.006382
     78 C                    -0.045943
     79 C                     0.037903
     80 C                     0.006170
     81 C                     0.004456
     82 C                    -0.009718
     83 C                     0.006111
     84 C                     0.006553
     85 C                    -0.011686
     86 C                    -0.007187
     87 C                     0.016546
     88 C                     0.029021
     89 O                    -0.442749
     90 C                    -0.099902
     91 H                     0.128640
     92 H                     0.123080
     93 H                     0.145103
     94 O                    -0.493565
     95 C                     0.564775
     96 C                    -0.232387
     97 H                     0.130238
     98 H                     0.137473
     99 C                    -0.188637
    100 H                     0.109207
    101 H                     0.127842
    102 C                    -0.187117
    103 H                     0.106204
    104 H                     0.112064
    105 C                     0.017914
    106 C                     0.077981
    107 C                    -0.104524
    108 H                     0.092535
    109 C                    -0.094321
    110 H                     0.134625
    111 C                    -0.096872
    112 H                     0.091192
    113 C                    -0.104385
    114 H                     0.089286
    115 C                    -0.098536
    116 H                     0.097161
    117 C                    -0.016130
    118 C                     0.001882
    119 C                    -0.002400
    120 C                    -0.019915
    121 C                    -0.006527
    122 C                    -0.023709
    123 C                     0.017045
    124 C                    -0.005840
    125 C                    -0.017730
    126 C                     0.012637
    127 C                    -0.064639
    128 C                     0.012263
    129 C                    -0.000760
    130 C                    -0.012146
    131 C                     0.047698
    132 C                     0.014242
    133 C                    -0.084254
    134 C                    -0.001683
    135 C                    -0.000379
    136 C                     0.006289
    137 C                    -0.004776
    138 C                     0.002027
    139 C                     0.010525
    140 C                    -0.006599
    141 C                     0.001082
    142 C                     0.028753
    143 C                    -0.027030
    144 C                    -0.006481
    145 C                     0.013573
    146 C                     0.014281
    147 C                    -0.003863
    148 C                     0.042866
    149 C                    -0.008707
    150 C                     0.002997
    151 C                     0.021045
    152 C                     0.002788
    153 C                     0.023189
    154 C                    -0.012030
    155 C                     0.006783
    156 C                     0.025387
    157 C                    -0.016495
    158 C                     0.025692
    159 C                    -0.044429
    160 C                    -0.038187
    161 C                    -0.009455
    162 C                    -0.016316
    163 C                     0.005780
    164 C                     0.011645
    165 C                     0.007860
    166 C                    -0.011763
    167 C                     0.035692
    168 C                    -0.018547
    169 C                     0.028152
    170 C                    -0.029839
    171 C                    -0.032235
    172 C                    -0.020098
    173 C                    -0.007021
    174 C                    -0.007915
    175 C                    -0.013304
    176 C                     0.013869
  ----------------------------------------
  Sum of atomic charges =     0.000000

                    Cartesian Multipole Moments
 -----------------------------------------------------------------
    Charge (ESU x 10^10)
                 0.0000
    Dipole Moment (Debye)
         X       0.0534      Y       2.7763      Z       0.1310
       Tot       2.7799
    Quadrupole Moments (Debye-Ang)
        XX    -808.4734     XY     -38.3231     YY    -808.3254
        XZ      -6.4327     YZ       7.9286     ZZ    -789.4046

 Total job time:  864.79s(wall), 8277.29s(cpu)
        *  Thank you very much for using Q-Chem.  Have a nice day.  *
