 Q-Chem 4.4, Q-Chem, Inc., Pleasanton, CA (2016)
 Q-Chem 4.4.2 for Intel X86 Linux

User input:
--------------------------------------------------------------
$comment
SP
$end

$rem
MEM_STATIC 5000
MEM_TOTAL 20000
JOBTYPE SP
EXCHANGE B3LYP
BASIS 6-31g(d,p)
$end

$molecule
0 1
O         -21.884000     -8.487000    -13.806000
C         -21.802000     -7.886000    -15.132000
H         -20.757000     -7.600000    -15.303000
H         -22.313000     -6.922000    -15.016000
H         -22.184000     -8.612000    -15.859000
O         -20.244000    -10.017000    -14.445000
C         -21.091000     -9.580000    -13.645000
C         -21.326000    -10.289000    -12.277000
H         -20.944000     -9.646000    -11.475000
H         -20.922000    -11.306000    -12.203000
C         -22.824000    -10.452000    -11.953000
H         -23.317000     -9.474000    -11.889000
H         -23.217000    -11.045000    -12.788000
C         -23.163000    -11.374000    -10.697000
H         -23.021000    -12.409000    -11.030000
H         -22.488000    -11.173000     -9.856000
C         -24.695000    -11.205000    -10.276000
C         -25.602000    -12.031000    -11.172000
C         -26.226000    -11.397000    -12.287000
H         -26.109000    -10.393000    -12.686000
C         -27.225000    -12.135000    -13.073000
H         -27.660000    -11.700000    -13.968000
C         -27.675000    -13.435000    -12.690000
H         -28.467000    -13.890000    -13.276000
C         -27.079000    -13.988000    -11.527000
H         -27.397000    -14.973000    -11.198000
C         -26.011000    -13.298000    -10.845000
H         -25.583000    -13.688000     -9.926000
C         -28.569000     -7.685000     -8.877000
C         -29.252000     -9.777000     -7.799000
C         -28.248000     -8.442000     -3.481000
C         -23.848000     -6.455000     -7.692000
C         -25.184000    -10.028000     -3.527000
C         -28.705000     -9.078000     -8.892000
C         -23.398000     -7.361000     -5.106000
C         -29.357000     -7.206000     -5.286000
C         -25.944000    -11.941000     -6.935000
C         -23.144000     -7.727000     -7.474000
C         -25.008000    -11.082000     -8.830000
C         -24.635000    -11.697000     -6.570000
C         -22.985000     -9.500000     -6.157000
C         -23.894000     -7.992000     -3.988000
C         -27.529000    -11.051000     -8.617000
C         -26.103000     -7.880000     -3.036000
C         -25.176000     -9.888000     -9.715000
C         -24.283000     -8.694000     -9.368000
C         -26.255000     -9.322000     -3.023000
C         -26.645000     -5.112000     -5.954000
C         -27.461000     -6.202000     -4.174000
C         -28.504000     -6.099000     -5.121000
C         -29.678000     -7.626000     -6.627000
C         -25.069000     -7.533000     -9.503000
C         -26.270000    -11.516000     -8.224000
C         -29.725000     -9.020000     -6.703000
C         -22.937000     -8.098000     -6.152000
C         -28.496000    -10.962000     -7.644000
C         -24.341000    -11.283000     -5.276000
C         -25.919000     -5.685000     -8.182000
C         -29.187000     -8.388000     -4.566000
C         -24.109000    -11.040000     -7.677000
C         -28.201000     -5.914000     -7.583000
C         -23.510000    -10.158000     -5.062000
C         -26.924000    -11.889000     -5.982000
C         -25.039000     -6.056000     -4.306000
C         -24.002000     -6.124000     -5.294000
C         -26.667000    -11.494000     -4.677000
C         -24.846000     -6.425000     -8.670000
C         -23.418000     -8.800000     -8.273000
C         -25.585000     -5.159000     -6.910000
C         -26.499000     -9.284000     -9.845000
C         -28.628000    -10.646000     -5.191000
C         -23.259000     -9.902000     -7.484000
C         -25.396000    -11.147000     -4.304000
C         -27.229000     -5.963000     -8.622000
C         -27.554000     -9.629000     -3.300000
C         -29.084000     -7.001000     -7.740000
C         -27.358000     -7.322000     -3.347000
C         -28.245000    -11.456000     -6.321000
C         -27.728000    -10.680000     -4.170000
C         -27.626000     -9.877000     -9.318000
C         -26.363000     -7.848000     -9.794000
C         -26.383000     -5.539000     -4.642000
C         -29.384000     -9.481000     -5.439000
C         -23.988000     -9.406000     -3.997000
C         -24.279000     -5.657000     -6.584000
C         -24.938000     -7.166000     -3.499000
C         -27.425000     -7.044000     -9.389000
C         -27.913000     -5.494000     -6.294000
O         -35.269000    -21.526000     -6.132000
C         -36.520000    -21.878000     -5.514000
H         -36.343000    -22.339000     -4.534000
H         -37.115000    -22.466000     -6.223000
H         -37.070000    -20.932000     -5.446000
O         -34.330000    -23.568000     -5.784000
C         -34.246000    -22.443000     -6.234000
C         -32.986000    -21.967000     -6.998000
H         -32.263000    -22.784000     -7.120000
H         -32.645000    -21.251000     -6.240000
C         -33.164000    -21.178000     -8.259000
H         -33.514000    -21.764000     -9.118000
H         -33.970000    -20.448000     -8.114000
C         -31.831000    -20.478000     -8.550000
H         -31.055000    -21.232000     -8.727000
H         -32.007000    -20.027000     -9.534000
C         -31.233000    -19.430000     -7.596000
C         -32.207000    -18.554000     -6.975000
C         -32.465000    -18.638000     -5.569000
H         -32.178000    -19.465000     -4.926000
C         -33.258000    -17.650000     -4.963000
H         -33.303000    -17.725000     -3.880000
C         -33.622000    -16.502000     -5.702000
H         -34.161000    -15.664000     -5.270000
C         -33.388000    -16.416000     -7.075000
H         -33.732000    -15.529000     -7.599000
C         -32.694000    -17.436000     -7.740000
H         -32.598000    -17.375000     -8.820000
C         -27.548000    -15.459000     -7.124000
C         -27.717000    -16.355000     -4.876000
C         -23.656000    -18.451000     -4.718000
C         -26.466000    -19.242000    -10.324000
C         -24.963000    -21.604000     -5.421000
C         -28.325000    -16.004000     -6.100000
C         -24.935000    -21.187000     -9.020000
C         -24.390000    -16.263000     -5.668000
C         -28.756000    -20.249000     -4.868000
C         -27.069000    -20.444000     -9.833000
C         -30.013000    -19.824000     -6.891000
C         -28.483000    -21.282000     -5.720000
C         -27.094000    -21.918000     -8.170000
C         -24.378000    -21.500000     -7.795000
C         -29.350000    -17.921000     -5.287000
C         -23.142000    -20.107000     -6.190000
C         -29.921000    -18.790000     -8.021000
C         -29.060000    -19.171000     -9.159000
C         -24.005000    -20.610000     -5.138000
C         -23.950000    -17.240000     -8.958000
C         -22.997000    -17.813000     -6.937000
C         -23.703000    -16.678000     -6.825000
C         -25.595000    -15.602000     -5.638000
C         -28.334000    -17.994000     -9.550000
C         -29.566000    -19.324000     -5.503000
C         -26.364000    -16.142000     -4.606000
C         -26.321000    -21.437000     -9.215000
C         -28.351000    -17.531000     -4.405000
C         -27.188000    -21.916000     -5.724000
C         -26.109000    -17.026000     -9.916000
C         -24.337000    -17.137000     -4.573000
C         -29.146000    -21.076000     -6.941000
C         -25.504000    -15.599000     -8.084000
C         -26.501000    -22.249000     -6.947000
C         -27.768000    -19.839000     -3.949000
C         -23.375000    -19.611000     -8.594000
C         -24.314000    -20.059000     -9.548000
C         -26.515000    -20.468000     -3.848000
C         -27.114000    -18.025000    -10.147000
C         -28.369000    -20.408000     -9.220000
C         -24.844000    -17.627000     -9.912000
C         -29.527000    -17.409000     -7.685000
C         -26.208000    -18.287000     -3.532000
C         -28.394000    -21.298000     -8.150000
C         -26.220000    -21.530000     -4.760000
C         -26.452000    -15.998000     -9.035000
C         -24.253000    -19.628000     -4.218000
C         -26.162000    -15.275000     -6.891000
C         -22.993000    -18.731000     -5.887000
C         -27.574000    -18.455000     -3.679000
C         -25.545000    -19.546000     -3.648000
C         -29.257000    -16.992000     -6.349000
C         -28.651000    -16.902000     -8.705000
C         -23.218000    -18.237000     -8.306000
C         -25.584000    -17.096000     -4.016000
C         -25.162000    -21.998000     -6.755000
C         -25.082000    -19.013000    -10.171000
C         -23.383000    -20.514000     -7.549000
C         -27.687000    -15.937000     -8.425000
C         -24.264000    -16.276000     -8.027000
$end

--------------------------------------------------------------

             Standard Nuclear Orientation (Angstroms)
    I     Atom           X                Y                Z
 ----------------------------------------------------------------
    1      O      -7.2197744309     5.9351686933    -3.2425563614
    2      C      -7.9148566146     6.5620696655    -4.3606158092
    3      H      -8.4971985452     7.4013476562    -3.9611757884
    4      H      -8.6831587453     5.8291543562    -4.6370574580
    5      H      -7.1656515413     6.8603633895    -5.1030722809
    6      O      -6.2688037601     8.0021175779    -2.7305035399
    7      C      -6.3878005190     6.7740419035    -2.5691098921
    8      C      -5.5429874298     6.0332008879    -1.4889360941
    9      H      -6.2073358357     5.7166364642    -0.6759138549
   10      H      -4.6797398276     6.5920098509    -1.1074690311
   11      C      -4.9385700912     4.7186102190    -2.0200481858
   12      H      -5.7291740953     4.0245831719    -2.3313370655
   13      H      -4.3213278885     5.0308152603    -2.8714370955
   14      C      -3.8688145575     4.0160325468    -1.0689705272
   15      H      -2.9438861193     4.5966265456    -1.1674387585
   16      H      -4.1907826828     4.0312002721    -0.0204413353
   17      C      -3.5650842001     2.5297047806    -1.5703722039
   18      C      -2.5837664585     2.5342671015    -2.7299995903
   19      C      -3.0947210540     2.4792768831    -4.0605853550
   20      H      -4.1171101944     2.5135027810    -4.4272664611
   21      C      -2.1633909764     2.3265701123    -5.1874153905
   22      H      -2.5215477502     2.3548001153    -6.2123065029
   23      C      -0.7647212169     2.1201622027    -4.9866476670
   24      H      -0.1480234301     1.9427954854    -5.8618104446
   25      C      -0.3197553366     2.1043464562    -3.6392987042
   26      H       0.7363383725     1.9447577766    -3.4423532014
   27      C      -1.2323810050     2.3818419614    -2.5567283213
   28      H      -0.9135063569     2.3224885446    -1.5200793302
   29      C      -5.7295284645    -2.2661922940    -2.8626683299
   30      C      -3.4565798095    -2.8193946205    -2.1327994390
   31      C      -4.7012702634    -4.7670340377     1.8787852073
   32      C      -8.1575610771     0.4676381326     0.5776506715
   33      C      -4.0571261698    -1.8869512735     3.6664679693
   34      C      -4.3601561248    -1.9806837151    -2.8129265298
   35      C      -7.2293764831    -0.3472915830     3.0646357776
   36      C      -5.7008522981    -4.9919072493    -0.3496379560
   37      C      -2.2622855994    -0.0869693214     0.6021172552
   38      C      -7.1250207209     1.2544203279     1.2675479029
   39      C      -3.4879427932     1.4548205147    -0.5492517319
   40      C      -2.8400522472     0.6778288679     1.5958533521
   41      C      -5.3783472388     1.1461144503     2.6242721136
   42      C      -6.4034485038    -1.1782720039     3.7867268474
   43      C      -2.7870386664    -0.6593521571    -1.7495759876
   44      C      -5.8143080943    -3.4744867207     3.3638314086
   45      C      -4.6467958779     1.4786477531    -1.4945436396
   46      C      -6.0162411925     1.6629165061    -0.8356365469
   47      C      -4.3914952031    -3.2034477777     3.4329571474
   48      C      -8.5210689666    -3.0638490359     0.3679785631
   49      C      -7.1170030696    -4.3840600532     1.5116558893
   50      C      -6.9891092222    -4.7152352397     0.1444568695
   51      C      -5.3065275174    -4.3928114183    -1.5999635746
   52      C      -6.9133121426     0.7965159269    -1.4902782406
   53      C      -2.6706701033     0.2463564574    -0.6903756934
   54      C      -3.9659095517    -4.0033243246    -1.5523791866
   55      C      -6.7321017694     0.7941950189     2.5173404307
   56      C      -2.5265878896    -1.9810159610    -1.4755154425
   57      C      -3.2244280327     0.0848993681     2.7929155325
   58      C      -8.3423860097    -1.1095387606    -1.0349229833
   59      C      -4.5661335371    -4.9268652234     0.4582029121
   60      C      -3.6985413726     1.5192564542     0.8967324479
   61      C      -7.4323723038    -3.1753631739    -1.7581176655
   62      C      -4.5200650885     0.3123411660     3.3140458887
   63      C      -1.9642368241    -1.3976913686     0.8560614272
   64      C      -7.9531317227    -2.4413233746     2.7081035785
   65      C      -8.2546122202    -1.0620016564     2.4576677436
   66      C      -2.3191468472    -2.0206028846     2.0439667764
   67      C      -7.9749026909     0.2091356227    -0.7836723491
   68      C      -6.0799399547     1.7732379234     0.5580124952
   69      C      -8.8468056045    -1.6897531505     0.1546685996
   70      C      -4.8586418714     0.3396633749    -2.3832960581
   71      C      -2.6115047781    -3.5193619058     0.4637550069
   72      C      -5.0135356481     1.7696287790     1.4094670324
   73      C      -2.9840331331    -1.3186076715     3.0135584160
   74      C      -7.7373240290    -1.8245559149    -2.0883148707
   75      C      -3.7498777849    -3.9912880662     2.5241041513
   76      C      -6.1541441051    -3.4856143938    -2.2638684467
   77      C      -6.0147219822    -4.4477413013     2.3659738061
   78      C      -2.0284683977    -2.3731261128    -0.1888559690
   79      C      -2.7593950564    -3.3606730099     1.8078321252
   80      C      -3.9334178685    -0.6750339698    -2.5010111515
   81      C      -6.2664896690     0.0225159434    -2.4072769937
   82      C      -8.0909366032    -3.4597378211     1.6449183501
   83      C      -3.5291902061    -4.3011514447    -0.2689956821
   84      C      -5.0254682789    -0.8571297745     3.8664210641
   85      C      -8.7171238675    -0.7010684236     1.1869481925
   86      C      -6.8613107295    -2.4983605623     3.5437013753
   87      C      -6.7043688410    -1.2595724546    -2.7278954124
   88      C      -7.8211498532    -3.7719364652    -0.5690771594
   89      O       9.6056596355    -5.2377485526    -2.8755268054
   90      C      10.3422888481    -6.4667618571    -3.0086909922
   91      H      10.8047017107    -6.7380086324    -2.0511683912
   92      H      11.0212707369    -6.3844705358    -3.8658150982
   93      H       9.5987391939    -7.1991150018    -3.3445969065
   94      O      11.3173122782    -4.1244081926    -1.8738744338
   95      C      10.1848506925    -4.1216122877    -2.3128550028
   96      C       9.3164068914    -2.8395599643    -2.3084727119
   97      H       9.8835953505    -1.9766979591    -1.9358221896
   98      H       8.5906625561    -3.1844579387    -1.5615848039
   99      C       8.5200680912    -2.5053482062    -3.5325940360
  100      H       9.1166638504    -2.1479768809    -4.3812024474
  101      H       8.0612876419    -3.4222958719    -3.9228355991
  102      C       7.4514146454    -1.4872810741    -3.1165542211
  103      H       7.9393047928    -0.5698012361    -2.7669616712
  104      H       6.9979864195    -1.2102883825    -4.0758825762
  105      C       6.3497144222    -1.8287277835    -2.0988633237
  106      C       5.8338685806    -3.1798844261    -2.1987221989
  107      C       6.0904017666    -4.1322733996    -1.1606461094
  108      H       6.8468669775    -4.0306574243    -0.3878708650
  109      C       5.4150388402    -5.3633330294    -1.1852653200
  110      H       5.5788880188    -5.9728198781    -0.3008343008
  111      C       4.3664529222    -5.5615897191    -2.1113770074
  112      H       3.7497258166    -6.4553297037    -2.1276717063
  113      C       4.1172323315    -4.6468057721    -3.1352619753
  114      H       3.3282853417    -4.8752939555    -3.8459213856
  115      C       4.8469429276    -3.4526089259    -3.2106100893
  116      H       4.6822364524    -2.8006739900    -4.0633642252
  117      C       1.5424432629    -0.2772937820    -0.0853970241
  118      C       2.6118360186    -1.3976713255     1.7816954466
  119      C       3.4758233221     2.2976512050     4.3327772437
  120      C       4.6181365607     3.3777403178    -1.7891133935
  121      C       6.8096615092     2.5230945603     3.3435526807
  122      C       2.3589426458    -1.3020610722     0.3967966700
  123      C       6.1392264915     4.4063370066     0.3217338947
  124      C       1.5223152467     1.6362855793     2.9274297036
  125      C       6.6302835548    -1.1466810950     1.6030776910
  126      C       5.9744097175     2.9642820081    -1.5914537104
  127      C       6.4321247074    -1.1447086329    -0.8081320014
  128      C       7.4781098668    -0.1783100438     1.1437629275
  129      C       7.5127376255     2.4382936480    -0.0762793005
  130      C       6.3703229696     4.2594567267     1.6759360957
  131      C       4.5421320526    -2.0278396194     0.7024312795
  132      C       4.8055374913     3.9685702843     3.5497027526
  133      C       5.3345634482    -0.7370808094    -1.7999580143
  134      C       5.3712728123     0.6721807186    -2.2405943363
  135      C       5.6083200333     2.8489933373     4.0042020926
  136      C       2.0905479944     4.0596802421     0.5239949004
  137      C       2.5162806764     3.8598572706     2.7822689014
  138      C       1.6394856337     2.9281091418     2.3794278935
  139      C       1.2342325108     0.4867894838     2.2306420290
  140      C       4.0113508372     1.1346555398    -2.2854860000
  141      C       5.9290210436    -1.6923046736     0.5421932483
  142      C       2.0442688140    -0.5374403707     2.7233685177
  143      C       6.7570264152     3.4891049810    -0.5718709763
  144      C       3.9505749762    -1.8317787679     1.9432557505
  145      C       7.7167592616     1.0204504935     1.9086267328
  146      C       2.4279916029     2.8235627773    -1.4717471732
  147      C       2.4232080913     1.3180881131     3.9535156917
  148      C       7.3796742166    -0.0877041759    -0.2544312648
  149      C       1.0262809464     1.9008858272     0.2436106557
  150      C       7.7506887647     2.3258787625     1.2976497911
  151      C       6.0254350409    -0.9851359878     2.8667495050
  152      C       4.2211706036     4.9679229817     1.3727024020
  153      C       4.8458912087     4.8747402144     0.1103307699
  154      C       6.2789103940     0.1214558759     3.6956377320
  155      C       3.6512538290     2.4334149739    -2.1142432570
  156      C       6.3535860037     1.5922496000    -1.7934869136
  157      C       2.6441824491     3.9851553076    -0.7198121283
  158      C       3.9270255868    -0.9920238503    -1.4406055210
  159      C       4.1296668758    -0.4119824875     3.9125750780
  160      C       7.2900648482     1.2306679198    -0.8291783208
  161      C       7.1438281498     1.1481341014     3.2012066480
  162      C       1.6069228794     1.7854291912    -1.0259682946
  163      C       4.8071510699     1.8770823183     4.5387535523
  164      C       0.9905337559     0.6372918367     0.8463057408
  165      C       3.4698414352     3.5398638618     3.7484811440
  166      C       4.6669095759    -1.3624324634     3.0618082919
  167      C       5.1369245479     0.5222738079     4.3007801225
  168      C       3.5496658995    -1.6277764923    -0.2219573992
  169      C       3.1190771988     0.1191319566    -1.8617672180
  170      C       2.8840186945     4.5543161184     1.5635508623
  171      C       2.7784689065     0.0172342095     3.7332706586
  172      C       7.1450415969     3.2074068373     2.1630316499
  173      C       4.0179044294     4.3222548809    -0.9295090492
  174      C       5.1634258821     4.6370682204     2.3267401984
  175      C       1.9435423631     0.4594168719    -1.1975044489
  176      C       1.3261127922     3.0346349332     1.0334788908
 ----------------------------------------------------------------

    9   -5804.2302022903      9.10E-06 Convergence criterion met
 Total energy in the final basis set = -5804.2302022903

                    Orbital Energies (a.u.)
 --------------------------------------------------------------

 Alpha MOs
 -- Occupied --
-19.202 -19.188 -19.136 -19.131 -10.322 -10.316 -10.250 -10.247
-10.247 -10.242 -10.240 -10.238 -10.236 -10.235 -10.235 -10.232
-10.231 -10.229 -10.228 -10.227 -10.226 -10.226 -10.226 -10.224
-10.223 -10.223 -10.223 -10.223 -10.222 -10.222 -10.222 -10.221
-10.221 -10.221 -10.221 -10.220 -10.220 -10.220 -10.220 -10.220
-10.220 -10.220 -10.219 -10.219 -10.219 -10.218 -10.218 -10.218
-10.218 -10.218 -10.218 -10.218 -10.218 -10.218 -10.218 -10.217
-10.217 -10.217 -10.217 -10.217 -10.217 -10.217 -10.216 -10.216
-10.216 -10.216 -10.216 -10.216 -10.215 -10.215 -10.215 -10.215
-10.215 -10.215 -10.215 -10.215 -10.215 -10.215 -10.215 -10.215
-10.214 -10.214 -10.214 -10.214 -10.214 -10.214 -10.214 -10.214
-10.214 -10.214 -10.214 -10.214 -10.213 -10.213 -10.213 -10.213
-10.213 -10.213 -10.212 -10.212 -10.212 -10.212 -10.212 -10.212
-10.212 -10.212 -10.211 -10.211 -10.211 -10.211 -10.211 -10.211
-10.211 -10.211 -10.211 -10.211 -10.211 -10.210 -10.210 -10.210
-10.210 -10.210 -10.209 -10.209 -10.209 -10.209 -10.208 -10.208
-10.208 -10.208 -10.208 -10.208 -10.207 -10.206 -10.206 -10.206
-10.204 -10.204 -10.204 -10.204 -10.203 -10.203 -10.203 -10.202
-10.202 -10.199 -10.199 -10.195  -1.094  -1.087  -1.006  -1.002
 -0.987  -0.987  -0.969  -0.968  -0.967  -0.965  -0.965  -0.963
 -0.940  -0.937  -0.933  -0.930  -0.927  -0.927  -0.927  -0.926
 -0.924  -0.919  -0.904  -0.901  -0.893  -0.890  -0.890  -0.886
 -0.881  -0.878  -0.855  -0.846  -0.844  -0.842  -0.840  -0.838
 -0.837  -0.837  -0.829  -0.821  -0.815  -0.802  -0.801  -0.800
 -0.800  -0.797  -0.795  -0.794  -0.794  -0.791  -0.788  -0.784
 -0.774  -0.772  -0.770  -0.770  -0.768  -0.765  -0.765  -0.763
 -0.758  -0.744  -0.741  -0.737  -0.735  -0.734  -0.721  -0.721
 -0.718  -0.717  -0.716  -0.715  -0.714  -0.711  -0.711  -0.710
 -0.709  -0.706  -0.705  -0.705  -0.703  -0.701  -0.678  -0.677
 -0.661  -0.660  -0.659  -0.657  -0.654  -0.648  -0.635  -0.633
 -0.633  -0.631  -0.628  -0.627  -0.622  -0.621  -0.619  -0.617
 -0.617  -0.617  -0.615  -0.614  -0.613  -0.612  -0.609  -0.608
 -0.607  -0.605  -0.604  -0.602  -0.567  -0.566  -0.566  -0.565
 -0.564  -0.563  -0.561  -0.560  -0.560  -0.557  -0.555  -0.553
 -0.543  -0.540  -0.538  -0.532  -0.530  -0.529  -0.528  -0.526
 -0.525  -0.524  -0.523  -0.519  -0.518  -0.517  -0.514  -0.513
 -0.507  -0.506  -0.502  -0.498  -0.496  -0.496  -0.490  -0.489
 -0.488  -0.486  -0.485  -0.484  -0.481  -0.480  -0.479  -0.478
 -0.476  -0.475  -0.473  -0.472  -0.471  -0.469  -0.469  -0.468
 -0.467  -0.466  -0.465  -0.464  -0.464  -0.463  -0.462  -0.459
 -0.459  -0.456  -0.455  -0.453  -0.451  -0.450  -0.448  -0.446
 -0.446  -0.443  -0.442  -0.441  -0.441  -0.438  -0.436  -0.436
 -0.433  -0.432  -0.432  -0.431  -0.428  -0.427  -0.426  -0.424
 -0.424  -0.423  -0.423  -0.422  -0.422  -0.421  -0.420  -0.419
 -0.418  -0.417  -0.416  -0.416  -0.415  -0.414  -0.414  -0.413
 -0.412  -0.410  -0.408  -0.407  -0.405  -0.404  -0.399  -0.399
 -0.398  -0.395  -0.394  -0.391  -0.389  -0.388  -0.388  -0.386
 -0.384  -0.380  -0.377  -0.373  -0.369  -0.369  -0.367  -0.367
 -0.366  -0.365  -0.364  -0.363  -0.361  -0.361  -0.360  -0.360
 -0.359  -0.358  -0.357  -0.355  -0.355  -0.355  -0.353  -0.352
 -0.351  -0.350  -0.350  -0.349  -0.347  -0.346  -0.346  -0.345
 -0.344  -0.344  -0.341  -0.339  -0.339  -0.338  -0.336  -0.336
 -0.335  -0.333  -0.332  -0.329  -0.328  -0.327  -0.326  -0.324
 -0.315  -0.315  -0.304  -0.297  -0.291  -0.288  -0.275  -0.275
 -0.272  -0.270  -0.269  -0.267  -0.266  -0.266  -0.265  -0.264
 -0.263  -0.261  -0.260  -0.260  -0.258  -0.257  -0.255  -0.252
 -0.250  -0.249  -0.245  -0.243  -0.224  -0.222  -0.215  -0.211
 -0.210  -0.209  -0.207  -0.204  -0.204  -0.200

          Ground-State Mulliken Net Atomic Charges

     Atom                 Charge (a.u.)
  ----------------------------------------
      1 O                    -0.459040
      2 C                    -0.087075
      3 H                     0.139674
      4 H                     0.125879
      5 H                     0.138824
      6 O                    -0.486660
      7 C                     0.600834
      8 C                    -0.247523
      9 H                     0.129344
     10 H                     0.127666
     11 C                    -0.191924
     12 H                     0.120483
     13 H                     0.109799
     14 C                    -0.200401
     15 H                     0.116668
     16 H                     0.105567
     17 C                     0.029717
     18 C                     0.080841
     19 C                    -0.115238
     20 H                     0.098060
     21 C                    -0.103770
     22 H                     0.086977
     23 C                    -0.081384
     24 H                     0.095229
     25 C                    -0.092428
     26 H                     0.090530
     27 C                    -0.106742
     28 H                     0.084989
     29 C                    -0.007889
     30 C                     0.004396
     31 C                    -0.034803
     32 C                    -0.029258
     33 C                     0.021729
     34 C                    -0.019448
     35 C                     0.045888
     36 C                    -0.005645
     37 C                     0.029480
     38 C                    -0.030877
     39 C                    -0.098409
     40 C                     0.015239
     41 C                    -0.025738
     42 C                    -0.020317
     43 C                     0.016326
     44 C                    -0.018844
     45 C                    -0.093211
     46 C                     0.013211
     47 C                     0.006180
     48 C                    -0.014824
     49 C                     0.041526
     50 C                    -0.032819
     51 C                    -0.012657
     52 C                     0.004209
     53 C                     0.044764
     54 C                     0.002781
     55 C                     0.010161
     56 C                    -0.001719
     57 C                    -0.019937
     58 C                     0.009990
     59 C                     0.000616
     60 C                     0.017285
     61 C                    -0.016238
     62 C                     0.004246
     63 C                    -0.006209
     64 C                    -0.006672
     65 C                    -0.010416
     66 C                    -0.002245
     67 C                     0.002072
     68 C                     0.062547
     69 C                    -0.001004
     70 C                     0.045792
     71 C                    -0.013650
     72 C                    -0.029640
     73 C                    -0.022303
     74 C                    -0.016078
     75 C                     0.012166
     76 C                     0.011247
     77 C                     0.006169
     78 C                    -0.045349
     79 C                     0.039008
     80 C                     0.005961
     81 C                     0.004715
     82 C                    -0.010579
     83 C                     0.005253
     84 C                     0.007520
     85 C                    -0.011919
     86 C                    -0.007514
     87 C                     0.017564
     88 C                     0.029762
     89 O                    -0.478567
     90 C                    -0.076932
     91 H                     0.135566
     92 H                     0.124931
     93 H                     0.123734
     94 O                    -0.467828
     95 C                     0.571413
     96 C                    -0.228919
     97 H                     0.133867
     98 H                     0.127319
     99 C                    -0.193388
    100 H                     0.109452
    101 H                     0.126895
    102 C                    -0.184900
    103 H                     0.106092
    104 H                     0.099485
    105 C                     0.035270
    106 C                     0.059057
    107 C                    -0.104662
    108 H                     0.103047
    109 C                    -0.093098
    110 H                     0.094031
    111 C                    -0.083988
    112 H                     0.090723
    113 C                    -0.079931
    114 H                     0.093882
    115 C                    -0.101655
    116 H                     0.096971
    117 C                    -0.019469
    118 C                     0.004714
    119 C                     0.002024
    120 C                    -0.002558
    121 C                    -0.002425
    122 C                     0.012134
    123 C                     0.010259
    124 C                     0.001984
    125 C                     0.037663
    126 C                    -0.003405
    127 C                    -0.076808
    128 C                     0.005809
    129 C                    -0.016491
    130 C                     0.015018
    131 C                     0.014583
    132 C                    -0.022097
    133 C                    -0.091883
    134 C                     0.045675
    135 C                     0.002182
    136 C                     0.006368
    137 C                    -0.001779
    138 C                     0.039172
    139 C                     0.000047
    140 C                     0.011499
    141 C                     0.002451
    142 C                     0.002443
    143 C                    -0.001558
    144 C                    -0.012071
    145 C                    -0.008182
    146 C                    -0.001598
    147 C                    -0.040330
    148 C                     0.001832
    149 C                    -0.024363
    150 C                    -0.010474
    151 C                    -0.020519
    152 C                     0.011026
    153 C                    -0.023298
    154 C                     0.003113
    155 C                    -0.004484
    156 C                    -0.015936
    157 C                     0.007072
    158 C                     0.032032
    159 C                    -0.001391
    160 C                     0.020628
    161 C                    -0.022514
    162 C                    -0.003494
    163 C                     0.006552
    164 C                    -0.008504
    165 C                     0.002120
    166 C                    -0.014604
    167 C                     0.014835
    168 C                     0.011654
    169 C                    -0.022349
    170 C                    -0.012753
    171 C                     0.019767
    172 C                     0.020512
    173 C                    -0.012973
    174 C                    -0.005987
    175 C                     0.029500
    176 C                    -0.008729
  ----------------------------------------
  Sum of atomic charges =     0.000000

                    Cartesian Multipole Moments
 -----------------------------------------------------------------
    Charge (ESU x 10^10)
                 0.0000
    Dipole Moment (Debye)
         X       0.3116      Y      -2.5370      Z      -3.9989
       Tot       4.7460
    Quadrupole Moments (Debye-Ang)
        XX    -834.9524     XY     -14.2561     YY    -818.2210
        XZ      -2.3968     YZ       6.8493     ZZ    -785.3339

 Total job time:  865.69s(wall), 8269.75s(cpu)
        *  Thank you very much for using Q-Chem.  Have a nice day.  *
