 Q-Chem 4.4, Q-Chem, Inc., Pleasanton, CA (2016)
 Q-Chem 4.4.2 for Intel X86 Linux

User input:
--------------------------------------------------------------
$comment
SP
$end

$rem
MEM_STATIC 5000
MEM_TOTAL 20000
JOBTYPE SP
EXCHANGE B3LYP
BASIS 6-31g(d,p)
$end

$molecule
0 1
O           5.747000    -33.176000     11.644000
C           6.458000    -34.407000     11.865000
H           7.453000    -34.351000     11.406000
H           5.934000    -35.221000     11.349000
H           6.484000    -34.683000     12.927000
O           7.436000    -31.795000     12.413000
C           6.294000    -32.035000     12.044000
C           5.292000    -30.877000     11.898000
H           5.845000    -29.959000     12.134000
H           4.493000    -30.975000     12.643000
C           4.772000    -30.689000     10.493000
H           5.623000    -30.625000      9.803000
H           4.234000    -31.608000     10.231000
C           3.820000    -29.572000     10.314000
H           2.923000    -29.821000     10.894000
H           4.268000    -28.684000     10.776000
C           3.372000    -29.340000      8.782000
C           2.524000    -30.420000      8.283000
C           1.174000    -30.273000      8.536000
H           0.779000    -29.420000      9.080000
C           0.247000    -31.233000      8.145000
H          -0.805000    -31.092000      8.372000
C           0.646000    -32.287000      7.356000
H          -0.130000    -33.017000      7.143000
C           1.978000    -32.525000      7.079000
H           2.361000    -33.422000      6.602000
C           2.961000    -31.623000      7.634000
H           4.040000    -31.709000      7.547000
C           5.116000    -28.375000      3.716000
C           2.804000    -27.595000      3.748000
C           3.773000    -23.101000      3.578000
C           7.617000    -26.192000      7.583000
C           3.250000    -22.588000      7.093000
C           3.764000    -28.536000      4.135000
C           6.601000    -23.608000      8.061000
C           4.816000    -24.979000      2.393000
C           1.656000    -26.327000      7.348000
C           6.671000    -26.014000      8.621000
C           3.095000    -27.960000      8.233000
C           2.354000    -25.741000      8.434000
C           4.880000    -24.804000      9.246000
C           5.607000    -22.655000      7.564000
C           2.364000    -28.096000      5.863000
C           4.888000    -22.077000      5.315000
C           4.362000    -28.707000      7.828000
C           5.699000    -28.115000      8.157000
C           3.515000    -22.251000      5.722000
C           7.738000    -24.869000      4.368000
C           6.178000    -23.385000      3.638000
C           6.070000    -24.550000      2.861000
C           4.502000    -26.337000      2.470000
C           6.576000    -28.268000      7.048000
C           2.137000    -27.614000      7.133000
C           3.230000    -26.550000      2.923000
C           6.220000    -24.663000      8.852000
C           1.963000    -27.359000      4.794000
C           2.617000    -24.305000      8.484000
C           7.854000    -27.010000      5.483000
C           3.661000    -24.282000      2.768000
C           3.235000    -26.657000      8.979000
C           6.689000    -26.818000      3.332000
C           3.936000    -23.872000      8.800000
C           1.237000    -25.555000      6.262000
C           7.086000    -23.005000      5.877000
C           7.443000    -23.840000      6.963000
C           1.571000    -24.187000      6.303000
C           7.552000    -27.364000      6.833000
C           5.661000    -26.956000      8.878000
C           8.109000    -25.651000      5.471000
C           4.566000    -29.008000      6.403000
C           1.771000    -25.082000      4.165000
C           4.547000    -26.198000      9.212000
C           2.268000    -23.515000      7.346000
C           7.170000    -27.610000      4.403000
C           2.880000    -22.922000      4.650000
C           5.493000    -27.294000      2.846000
C           5.047000    -22.671000      4.066000
C           1.406000    -26.102000      4.995000
C           1.949000    -23.935000      4.980000
C           3.499000    -28.859000      5.468000
C           5.823000    -28.768000      5.987000
C           7.168000    -23.571000      4.584000
C           2.698000    -25.290000      3.143000
C           4.284000    -22.759000      7.998000
C           7.971000    -25.139000      6.721000
C           5.925000    -22.301000      6.252000
C           6.164000    -28.480000      4.689000
C           7.022000    -25.464000      3.320000
O           3.828000    -18.392000     -0.820000
C           3.898000    -19.272000     -1.868000
H           4.892000    -19.365000     -2.322000
H           3.178000    -18.918000     -2.616000
H           3.651000    -20.299000     -1.569000
O           5.240000    -16.754000     -1.662000
C           4.581000    -17.197000     -0.784000
C           4.451000    -16.560000      0.681000
H           5.332000    -15.908000      0.733000
H           4.718000    -17.270000      1.474000
C           3.169000    -15.795000      0.987000
H           3.276000    -15.030000      1.766000
H           2.938000    -15.199000      0.095000
C           1.984000    -16.792000      1.368000
H           1.548000    -17.338000      0.522000
H           2.445000    -17.582000      1.974000
C           0.782000    -16.186000      2.064000
C          -0.022000    -15.314000      1.220000
C          -1.109000    -15.800000      0.479000
H          -1.618000    -16.736000      0.690000
C          -1.772000    -14.933000     -0.450000
H          -2.637000    -15.255000     -1.022000
C          -1.254000    -13.677000     -0.700000
H          -1.822000    -12.989000     -1.319000
C          -0.161000    -13.172000      0.010000
H           0.189000    -12.147000     -0.073000
C           0.433000    -14.011000      1.012000
H           1.274000    -13.584000      1.550000
C          -1.028000    -13.608000      6.474000
C          -2.964000    -14.857000      5.808000
C          -2.749000    -17.897000      9.223000
C           3.009000    -16.560000      7.039000
C          -1.097000    -20.349000      7.415000
C          -1.811000    -14.124000      5.465000
C           2.229000    -19.099000      7.987000
C          -2.465000    -15.459000      9.244000
C          -1.776000    -18.200000      4.024000
C           2.947000    -17.638000      6.151000
C           0.103000    -17.042000      3.103000
C          -0.624000    -19.012000      4.196000
C           1.744000    -19.378000      5.603000
C           1.087000    -19.839000      8.367000
C          -2.005000    -15.832000      3.970000
C          -0.922000    -19.307000      9.544000
C           0.934000    -15.806000      3.526000
C           2.131000    -16.027000      4.383000
C          -1.728000    -19.805000      8.502000
C           1.030000    -15.695000      9.776000
C          -0.832000    -16.958000     10.335000
C          -1.249000    -15.621000      9.954000
C          -2.484000    -14.561000      8.199000
C           2.108000    -15.018000      5.379000
C          -1.372000    -16.985000      3.480000
C          -3.255000    -15.096000      7.204000
C           2.516000    -18.869000      6.619000
C          -3.042000    -15.905000      4.874000
C          -0.532000    -19.974000      5.218000
C           1.973000    -14.650000      7.770000
C          -3.248000    -16.599000      8.901000
C           0.542000    -18.313000      3.791000
C          -0.147000    -13.971000      8.560000
C           0.652000    -20.119000      5.921000
C          -2.841000    -18.365000      4.890000
C           1.251000    -18.181000      9.798000
C           2.279000    -18.032000      8.889000
C          -2.773000    -19.276000      5.919000
C           2.560000    -15.312000      6.674000
C           2.442000    -17.359000      4.839000
C           2.015000    -15.575000      8.825000
C           0.218000    -14.718000      4.143000
C          -3.763000    -17.393000      6.693000
C           1.684000    -18.437000      4.540000
C          -1.632000    -20.086000      6.134000
C           0.897000    -13.813000      7.567000
C          -2.856000    -18.932000      8.301000
C          -1.325000    -13.794000      7.862000
C          -1.569000    -18.090000      9.941000
C          -3.523000    -17.143000      5.339000
C          -3.340000    -18.697000      7.015000
C          -1.232000    -14.687000      4.290000
C           0.952000    -14.223000      5.204000
C           0.570000    -16.937000     10.225000
C          -3.669000    -16.351000      7.590000
C           0.292000    -20.308000      7.299000
C           2.689000    -16.759000      8.371000
C           0.504000    -19.321000      9.469000
C           0.320000    -13.647000      6.332000
C          -0.083000    -14.859000      9.633000
$end

--------------------------------------------------------------

             Standard Nuclear Orientation (Angstroms)
    I     Atom           X                Y                Z
 ----------------------------------------------------------------
    1      O      12.6840497129    -3.1991477102     0.5331999106
    2      C      14.1047175184    -3.0471130803     0.7014600006
    3      H      14.3145434636    -2.1758837824     1.3345275984
    4      H      14.5594135940    -2.8278216685    -0.2724962384
    5      H      14.5782752986    -3.9697961680     1.0607578554
    6      O      12.1749453273    -3.1021471047     2.7876724890
    7      C      11.9156237607    -3.3088967728     1.6095672731
    8      C      10.4734735438    -3.6627706129     1.2079952903
    9      H       9.8781031854    -3.6223373663     2.1289340987
   10      H      10.4286436195    -4.6942437430     0.8377474546
   11      C       9.8366449065    -2.6677340750     0.2677184295
   12      H       9.9419563102    -1.6600766619     0.6895395362
   13      H      10.4330501395    -2.6781599846    -0.6525212667
   14      C       8.4430758574    -2.9685578797    -0.1240778744
   15      H       8.4684668703    -3.8985345639    -0.7050328325
   16      H       7.8830522389    -3.1766200541     0.7955827578
   17      C       7.7661980666    -1.8280944187    -1.0420819867
   18      C       8.3524215216    -1.7727046251    -2.3791605302
   19      C       7.7901573420    -2.6307074215    -3.3042595485
   20      H       6.9796673402    -3.3060002492    -3.0460821795
   21      C       8.2603440697    -2.7090978693    -4.6106244970
   22      H       7.8039990579    -3.4043654784    -5.3080957738
   23      C       9.2068978294    -1.8132672691    -5.0512621210
   24      H       9.5560853279    -1.9806822151    -6.0663903527
   25      C       9.8411103329    -0.9414771788    -4.1879235207
   26      H      10.7009279346    -0.3304892552    -4.4452840636
   27      C       9.4765282110    -0.9810281539    -2.7902706322
   28      H       9.9201807996    -0.3973765493    -1.9891906205
   29      C       6.4905455129     3.4530395221    -1.3877000738
   30      C       4.9648896646     2.3320893752    -2.9273795862
   31      C       1.1693106044     2.8857303529    -0.3875059152
   32      C       6.1557730618     1.1853990964     3.1642130741
   33      C       1.2177377819    -0.4698047356     0.8891937668
   34      C       6.2420912725     2.4509630483    -2.3692800406
   35      C       3.5307621440     0.2577136454     3.5960850290
   36      C       3.0177045169     4.4425400622    -0.8102841944
   37      C       4.1190915197    -1.4000532961    -1.8131692924
   38      C       5.8652717112    -0.1768931824     2.9116012920
   39      C       6.2977212603    -1.4886524354    -0.9377507378
   40      C       4.0482502585    -2.0386379611    -0.5493705974
   41      C       4.2500128857    -1.5822109871     2.2199172641
   42      C       2.2085647996     0.2199203978     2.9686937215
   43      C       5.6892174960     0.2634447536    -2.5899116286
   44      C       0.9762835695     1.8627047296     1.6680059767
   45      C       7.3482655285    -0.5285297920    -0.3883471974
   46      C       7.3471782795    -0.1990115761     1.0737371242
   47      C       0.7298622748     0.8615290380     0.6590571276
   48      C       4.3476820452     4.0667608011     2.4363692706
   49      C       2.2932409368     3.9634176210     1.4682019714
   50      C       3.1638671044     4.6122203602     0.5773130435
   51      C       4.1622665836     4.2426713952    -1.5840536636
   52      C       7.5761958144     1.1933601397     1.2505731326
   53      C       5.4222548625    -0.9701222844    -2.0387344202
   54      C       3.9964649210     3.2486569205    -2.5076374621
   55      C       4.5174785338    -0.6076149267     3.1942589116
   56      C       4.6602263315     1.0113002542    -3.0680542156
   57      C       2.8397390829    -1.9757298498     0.2687420526
   58      C       6.5673394064     3.1605318336     2.1323425325
   59      C       2.0465396499     3.5619852652    -1.3021388991
   60      C       5.3061857736    -2.0966326187     0.0220109385
   61      C       5.5491414533     4.5120347880     0.3553780723
   62      C       2.9749137248    -1.6413715270     1.6460721975
   63      C       3.0483514081    -0.6460168137    -2.2988498425
   64      C       2.7154240252     2.4072447888     3.3072431771
   65      C       3.8217346259     1.6248543474     3.7171359095
   66      C       1.9253249413    -0.5411062444    -1.4547726379
   67      C       7.0534315467     1.8305922576     2.3167202839
   68      C       6.4190884119    -0.8667309167     1.8203066653
   69      C       5.4139390901     3.2753198342     2.8863593927
   70      C       7.4107640821     0.8291103052    -0.9502629359
   71      C       2.3865183817     1.4511135576    -2.5640200725
   72      C       5.3985426770    -1.6925415856     1.3690427271
   73      C       1.7669785738    -1.1431525426    -0.1750427122
   74      C       6.6571308209     3.8005385530     0.8767212118
   75      C       0.9034775039     1.5182435242    -0.5824072642
   76      C       5.4628741604     4.3859742933    -1.0120482350
   77      C       1.3256459945     3.0471108136     1.0251637535
   78      C       3.3547288699     0.5584443863    -2.9221195020
   79      C       1.5647416826     0.8017676895    -1.6076984736
   80      C       6.7095845452     1.1530338364    -2.1495693199
   81      C       7.5539790745     1.7831081304    -0.0121357507
   82      C       3.0031220125     3.5940987677     2.5948272165
   83      C       2.7008858882     2.7907058640    -2.3321957353
   84      C       1.9213206406    -0.7824532871     2.0401255824
   85      C       5.1471243450     2.1008019257     3.5132609593
   86      C       1.7357380671     1.5237980772     2.8133815252
   87      C       7.1523914658     3.0861488111    -0.1697472255
   88      C       4.4279576485     4.6634459477     1.1704673536
   89      O      -3.9915621108     6.7427533398    -0.2932907522
   90      C      -3.3723311254     7.7111382109    -1.0392047742
   91      H      -3.0257547418     8.5791661358    -0.4654336248
   92      H      -4.1003973441     8.0302561125    -1.7950508869
   93      H      -2.4620111532     7.3428622103    -1.5299484298
   94      O      -5.1555523163     8.1298754949     1.1581812346
   95      C      -4.8090330963     7.0504634363     0.8172882340
   96      C      -5.1442299028     5.6883890438     1.5927174378
   97      H      -5.4171209663     6.0481097570     2.5927676745
   98      H      -4.2425569043     5.1211803698     1.8563424065
   99      C      -6.2363174143     4.8084707618     0.9965012992
  100      H      -6.7415138647     4.1619524415     1.7247221504
  101      H      -7.0408784377     5.4812842644     0.6736320526
  102      C      -5.6695141238     3.9276933390    -0.2061458483
  103      H      -5.4943776535     4.4766772522    -1.1398866474
  104      H      -4.6633650578     3.6175005180     0.1025635147
  105      C      -6.5100670059     2.7426160918    -0.6368647479
  106      C      -7.7602665235     3.1012916276    -1.2906911974
  107      C      -7.8497194464     3.2516674138    -2.6821764821
  108      H      -7.1329830098     2.8372609664    -3.3852086128
  109      C      -9.0623564808     3.7515752948    -3.2600194828
  110      H      -9.1891508468     3.8549064424    -4.3334899587
  111      C     -10.0760038543     4.2010312071    -2.4360847857
  112      H     -11.0295067754     4.4736965800    -2.8783683755
  113      C     -10.0079747569     4.0806336949    -1.0451676491
  114      H     -10.8367920550     4.3064413009    -0.3802715583
  115      C      -8.8307855075     3.4835861930    -0.4807912220
  116      H      -8.8152064573     3.3978471772     0.6015488883
  117      C      -8.6252958911    -2.0300928995     0.8182433743
  118      C      -8.3037410830    -2.3353521521    -1.5386767122
  119      C      -4.7681654968    -5.2164412408    -1.1525667052
  120      C      -4.3848270708    -0.6032035344     3.1233049620
  121      C      -2.3040662725    -2.8173920691    -1.5804102327
  122      C      -8.6331400766    -1.5001561972    -0.4531855700
  123      C      -2.1525961367    -1.7774837822     1.8616251467
  124      C      -6.8903161330    -5.1293963863     0.0778157031
  125      C      -5.1854290883    -0.1649576781    -2.6941710352
  126      C      -3.5995479150     0.1642196899     2.2579320700
  127      C      -5.7612041764     1.5162944633    -1.0936335365
  128      C      -4.0009691935     0.2323631548    -2.0194689430
  129      C      -2.5460713031     0.1039200469     0.3443845840
  130      C      -1.8055097272    -2.6401233259     0.7978826769
  131      C      -7.4404718425    -0.2513757379    -1.9391246158
  132      C      -2.7684081812    -4.6275225174    -0.1117903528
  133      C      -6.5111412560     1.5182978373     0.2609056335
  134      C      -5.7136977217     1.3250242492     1.5030119614
  135      C      -2.8074422358    -4.0794250792    -1.4085052562
  136      C      -5.3295293368    -3.9581404964     3.0351539010
  137      C      -4.7241554121    -5.3105072026     1.2520889265
  138      C      -6.1694076764    -5.1845945125     1.2969318435
  139      C      -7.9261682902    -4.2254746966    -0.0155967560
  140      C      -6.4444962801     0.4231435134     2.3173648366
  141      C      -6.2607867714     0.4911876194    -2.1038692463
  142      C      -7.9096052800    -3.7020628927    -1.2791064513
  143      C      -2.5343332819    -0.4372770100     1.6070361449
  144      C      -7.5607298639    -1.5351401651    -2.4243059260
  145      C      -2.8853749258    -0.6162984430    -1.9027859433
  146      C      -6.3506960470    -1.7561066478     3.3721635146
  147      C      -6.1950695464    -5.1806403446    -1.1649007732
  148      C      -4.3070921471     1.1287980040    -0.9635923884
  149      C      -7.5645568727    -3.4553938790     2.2683040118
  150      C      -2.1927374283    -0.6805077517    -0.7056140835
  151      C      -5.2391678014    -1.4272463220    -3.2555492768
  152      C      -2.9759287233    -3.8458761881     2.2120610281
  153      C      -2.9292832349    -2.5627735796     2.7187541250
  154      C      -4.1772686544    -2.2939180723    -3.1345687867
  155      C      -5.7569271630    -0.5054186071     3.1128433703
  156      C      -4.2955996084     1.0831196346     1.4062602248
  157      C      -5.2800291019    -2.6577730841     3.4774437606
  158      C      -7.6354937330     0.6253880031     0.3859357715
  159      C      -6.0935752770    -3.4629300541    -2.8412346514
  160      C      -3.6393329046     1.0040330774     0.2276558255
  161      C      -2.9899419719    -1.9397555769    -2.4497109359
  162      C      -7.5372471462    -2.0907007660     2.7559677136
  163      C      -4.0449110728    -4.4405702047    -2.0512797703
  164      C      -8.2832990889    -3.3931494761     1.0911242206
  165      C      -4.0301022215    -5.2952318553     0.0282074648
  166      C      -6.5074443596    -2.1573482484    -3.1197746509
  167      C      -4.6881307105    -3.5342922114    -2.8928293508
  168      C      -8.1484267384    -0.1845620129    -0.7122220967
  169      C      -7.6154447493     0.0267892443     1.6312387725
  170      C      -4.2683433499    -4.5563268276     2.3482605946
  171      C      -6.8328280363    -4.2228938715    -1.9607976270
  172      C      -1.8723306544    -2.0642327403    -0.4891662721
  173      C      -4.0502990702    -1.9274348032     3.3485327657
  174      C      -2.2651232582    -3.8926084490     1.0044097181
  175      C      -8.1402126666    -1.2722865852     1.8327446583
  176      C      -6.5162924503    -4.3630628569     2.4140700142
 ----------------------------------------------------------------

    9   -5804.2750945936      8.01E-06 Convergence criterion met
 Total energy in the final basis set = -5804.2750945936

                    Orbital Energies (a.u.)
 --------------------------------------------------------------

 Alpha MOs
 -- Occupied --
-19.208 -19.187 -19.155 -19.136 -10.329 -10.319 -10.255 -10.243
-10.238 -10.237 -10.236 -10.234 -10.233 -10.232 -10.226 -10.226
-10.226 -10.224 -10.224 -10.222 -10.221 -10.221 -10.221 -10.220
-10.219 -10.219 -10.219 -10.219 -10.219 -10.218 -10.218 -10.218
-10.218 -10.218 -10.218 -10.217 -10.217 -10.217 -10.217 -10.217
-10.217 -10.217 -10.217 -10.216 -10.216 -10.216 -10.216 -10.216
-10.216 -10.216 -10.216 -10.216 -10.215 -10.215 -10.215 -10.215
-10.215 -10.214 -10.214 -10.214 -10.214 -10.214 -10.214 -10.214
-10.214 -10.214 -10.214 -10.213 -10.213 -10.213 -10.213 -10.213
-10.213 -10.213 -10.212 -10.212 -10.212 -10.212 -10.212 -10.212
-10.212 -10.211 -10.211 -10.211 -10.211 -10.211 -10.211 -10.211
-10.211 -10.211 -10.211 -10.211 -10.211 -10.210 -10.210 -10.210
-10.210 -10.210 -10.210 -10.210 -10.210 -10.210 -10.210 -10.209
-10.209 -10.209 -10.209 -10.209 -10.209 -10.209 -10.208 -10.208
-10.208 -10.208 -10.208 -10.208 -10.208 -10.208 -10.208 -10.208
-10.208 -10.207 -10.207 -10.206 -10.206 -10.206 -10.206 -10.205
-10.205 -10.205 -10.205 -10.205 -10.204 -10.204 -10.204 -10.203
-10.203 -10.202 -10.202 -10.201 -10.201 -10.200 -10.197 -10.196
-10.195 -10.193 -10.192 -10.190  -1.110  -1.100  -1.036  -1.016
 -0.985  -0.982  -0.966  -0.964  -0.964  -0.963  -0.961  -0.960
 -0.934  -0.932  -0.928  -0.927  -0.926  -0.925  -0.924  -0.922
 -0.921  -0.918  -0.898  -0.896  -0.892  -0.889  -0.886  -0.881
 -0.876  -0.876  -0.855  -0.851  -0.842  -0.841  -0.840  -0.839
 -0.839  -0.835  -0.823  -0.820  -0.811  -0.800  -0.798  -0.798
 -0.797  -0.795  -0.795  -0.794  -0.791  -0.789  -0.787  -0.781
 -0.771  -0.770  -0.769  -0.768  -0.767  -0.767  -0.766  -0.764
 -0.753  -0.747  -0.747  -0.740  -0.734  -0.730  -0.716  -0.716
 -0.714  -0.714  -0.713  -0.712  -0.711  -0.710  -0.708  -0.708
 -0.707  -0.705  -0.705  -0.705  -0.703  -0.702  -0.674  -0.671
 -0.660  -0.659  -0.657  -0.655  -0.647  -0.646  -0.632  -0.630
 -0.629  -0.628  -0.624  -0.623  -0.621  -0.621  -0.617  -0.617
 -0.615  -0.614  -0.614  -0.612  -0.611  -0.610  -0.610  -0.609
 -0.607  -0.606  -0.604  -0.602  -0.577  -0.569  -0.564  -0.563
 -0.562  -0.562  -0.558  -0.558  -0.557  -0.555  -0.554  -0.551
 -0.536  -0.536  -0.532  -0.531  -0.530  -0.529  -0.527  -0.524
 -0.523  -0.522  -0.520  -0.518  -0.516  -0.516  -0.513  -0.509
 -0.507  -0.503  -0.503  -0.501  -0.497  -0.489  -0.489  -0.487
 -0.486  -0.485  -0.484  -0.482  -0.481  -0.480  -0.477  -0.477
 -0.474  -0.473  -0.472  -0.470  -0.469  -0.469  -0.467  -0.465
 -0.465  -0.464  -0.464  -0.463  -0.463  -0.462  -0.461  -0.459
 -0.457  -0.457  -0.452  -0.451  -0.449  -0.447  -0.445  -0.444
 -0.442  -0.442  -0.439  -0.439  -0.437  -0.435  -0.434  -0.432
 -0.431  -0.431  -0.429  -0.428  -0.425  -0.424  -0.423  -0.422
 -0.422  -0.421  -0.421  -0.420  -0.419  -0.418  -0.417  -0.417
 -0.416  -0.416  -0.415  -0.415  -0.415  -0.414  -0.414  -0.413
 -0.413  -0.412  -0.412  -0.410  -0.402  -0.400  -0.398  -0.397
 -0.395  -0.394  -0.390  -0.390  -0.389  -0.389  -0.387  -0.385
 -0.382  -0.378  -0.374  -0.373  -0.370  -0.369  -0.367  -0.366
 -0.366  -0.364  -0.364  -0.363  -0.362  -0.360  -0.359  -0.357
 -0.357  -0.355  -0.355  -0.353  -0.352  -0.352  -0.352  -0.352
 -0.350  -0.348  -0.348  -0.346  -0.346  -0.346  -0.345  -0.342
 -0.340  -0.339  -0.339  -0.338  -0.335  -0.335  -0.334  -0.333
 -0.333  -0.331  -0.330  -0.330  -0.329  -0.327  -0.327  -0.325
 -0.314  -0.309  -0.308  -0.296  -0.285  -0.283  -0.281  -0.273
 -0.271  -0.269  -0.268  -0.267  -0.266  -0.265  -0.263  -0.262
 -0.262  -0.261  -0.260  -0.258  -0.256  -0.255  -0.254  -0.252
 -0.251  -0.249  -0.245  -0.243  -0.222  -0.220  -0.212  -0.211
 -0.210  -0.206  -0.205  -0.204  -0.199  -0.197

          Ground-State Mulliken Net Atomic Charges

     Atom                 Charge (a.u.)
  ----------------------------------------
      1 O                    -0.436491
      2 C                    -0.095859
      3 H                     0.138821
      4 H                     0.126203
      5 H                     0.132210
      6 O                    -0.473677
      7 C                     0.588139
      8 C                    -0.245598
      9 H                     0.127041
     10 H                     0.115808
     11 C                    -0.185550
     12 H                     0.103427
     13 H                     0.119835
     14 C                    -0.173836
     15 H                     0.109080
     16 H                     0.103909
     17 C                     0.015020
     18 C                     0.092178
     19 C                    -0.103809
     20 H                     0.088296
     21 C                    -0.084714
     22 H                     0.088811
     23 C                    -0.079979
     24 H                     0.087477
     25 C                    -0.097628
     26 H                     0.096370
     27 C                    -0.110626
     28 H                     0.090786
     29 C                    -0.024324
     30 C                    -0.004780
     31 C                    -0.021489
     32 C                    -0.010422
     33 C                     0.027872
     34 C                    -0.018975
     35 C                     0.005834
     36 C                    -0.001119
     37 C                     0.008512
     38 C                    -0.034349
     39 C                    -0.109578
     40 C                     0.011347
     41 C                    -0.002546
     42 C                    -0.007073
     43 C                     0.019965
     44 C                    -0.012742
     45 C                    -0.093867
     46 C                    -0.014465
     47 C                    -0.020972
     48 C                    -0.016329
     49 C                     0.007547
     50 C                     0.000115
     51 C                    -0.009313
     52 C                     0.012133
     53 C                     0.041624
     54 C                     0.043530
     55 C                    -0.001331
     56 C                     0.028115
     57 C                    -0.035624
     58 C                    -0.005149
     59 C                    -0.018012
     60 C                     0.008114
     61 C                     0.016576
     62 C                    -0.002161
     63 C                    -0.035401
     64 C                    -0.007907
     65 C                    -0.008844
     66 C                     0.019357
     67 C                    -0.021105
     68 C                     0.056787
     69 C                     0.012458
     70 C                     0.030032
     71 C                    -0.010395
     72 C                     0.005693
     73 C                    -0.003247
     74 C                    -0.008997
     75 C                     0.008477
     76 C                    -0.023147
     77 C                     0.016880
     78 C                     0.011705
     79 C                    -0.010361
     80 C                    -0.023446
     81 C                     0.056435
     82 C                    -0.004421
     83 C                    -0.014972
     84 C                     0.003742
     85 C                     0.020675
     86 C                     0.008237
     87 C                     0.008995
     88 C                     0.007359
     89 O                    -0.456171
     90 C                    -0.082634
     91 H                     0.118308
     92 H                     0.113271
     93 H                     0.118467
     94 O                    -0.414673
     95 C                     0.572006
     96 C                    -0.253104
     97 H                     0.124772
     98 H                     0.125615
     99 C                    -0.194056
    100 H                     0.111167
    101 H                     0.120674
    102 C                    -0.165800
    103 H                     0.120816
    104 H                     0.109503
    105 C                     0.012254
    106 C                     0.103548
    107 C                    -0.117423
    108 H                     0.096516
    109 C                    -0.089886
    110 H                     0.093594
    111 C                    -0.078776
    112 H                     0.087911
    113 C                    -0.092998
    114 H                     0.095525
    115 C                    -0.106661
    116 H                     0.090445
    117 C                     0.008788
    118 C                    -0.023144
    119 C                     0.020533
    120 C                     0.006791
    121 C                     0.005706
    122 C                    -0.011881
    123 C                    -0.016814
    124 C                    -0.014908
    125 C                     0.021831
    126 C                    -0.046276
    127 C                    -0.118558
    128 C                    -0.002847
    129 C                    -0.010253
    130 C                    -0.000185
    131 C                     0.017963
    132 C                    -0.006943
    133 C                    -0.086323
    134 C                     0.012391
    135 C                    -0.019978
    136 C                     0.008561
    137 C                    -0.005615
    138 C                    -0.011816
    139 C                     0.005587
    140 C                    -0.015159
    141 C                     0.027286
    142 C                     0.019367
    143 C                     0.043342
    144 C                     0.013797
    145 C                    -0.025030
    146 C                     0.004444
    147 C                    -0.035139
    148 C                     0.036891
    149 C                     0.005470
    150 C                     0.009911
    151 C                    -0.032731
    152 C                    -0.009903
    153 C                     0.004319
    154 C                     0.030578
    155 C                     0.009441
    156 C                     0.005800
    157 C                     0.004784
    158 C                     0.052361
    159 C                     0.016299
    160 C                     0.010367
    161 C                    -0.019312
    162 C                    -0.031511
    163 C                    -0.002083
    164 C                    -0.011619
    165 C                     0.006208
    166 C                    -0.040321
    167 C                     0.006395
    168 C                    -0.017241
    169 C                    -0.000304
    170 C                    -0.014043
    171 C                     0.014608
    172 C                     0.011495
    173 C                    -0.009224
    174 C                     0.008724
    175 C                     0.029566
    176 C                     0.000447
  ----------------------------------------
  Sum of atomic charges =     0.000000

                    Cartesian Multipole Moments
 -----------------------------------------------------------------
    Charge (ESU x 10^10)
                 0.0000
    Dipole Moment (Debye)
         X       3.0469      Y      -0.1584      Z      -4.1125
       Tot       5.1207
    Quadrupole Moments (Debye-Ang)
        XX    -742.1894     XY     -24.4216     YY    -818.6154
        XZ     -27.1695     YZ      -0.7833     ZZ    -809.2034

 Total job time:  839.53s(wall), 8022.89s(cpu)
        *  Thank you very much for using Q-Chem.  Have a nice day.  *
