 Q-Chem 4.4, Q-Chem, Inc., Pleasanton, CA (2016)
 Q-Chem 4.4.2 for Intel X86 Linux

User input:
--------------------------------------------------------------
$comment
SP
$end

$rem
MEM_STATIC 5000
MEM_TOTAL 20000
JOBTYPE SP
EXCHANGE B3LYP
BASIS 6-31g(d,p)
$end

$molecule
0 1
O         -17.149000    -13.909000     -1.238000
C         -17.890000    -15.055000     -1.751000
H         -17.460000    -15.486000     -2.663000
H         -18.939000    -14.831000     -1.983000
H         -17.967000    -15.795000     -0.945000
O         -15.118000    -15.092000     -1.213000
C         -15.816000    -14.171000     -0.872000
C         -15.239000    -13.061000      0.071000
H         -15.834000    -13.141000      0.989000
H         -15.392000    -12.074000     -0.384000
C         -13.756000    -13.012000      0.470000
H         -13.542000    -12.160000      1.127000
H         -13.564000    -13.956000      0.995000
C         -12.804000    -12.843000     -0.768000
H         -13.309000    -13.262000     -1.647000
H         -12.728000    -11.760000     -0.932000
C         -11.395000    -13.456000     -0.834000
C         -11.324000    -14.731000      0.019000
C         -10.722000    -14.762000      1.308000
H         -10.306000    -13.852000      1.731000
C         -10.669000    -15.918000      2.066000
H         -10.351000    -15.774000      3.095000
C         -11.149000    -17.085000      1.570000
H         -11.213000    -17.892000      2.294000
C         -11.721000    -17.129000      0.316000
H         -12.223000    -18.074000      0.129000
C         -11.950000    -15.967000     -0.415000
H         -12.468000    -15.954000     -1.369000
C          -5.853000    -13.172000     -1.110000
C          -6.405000    -14.943000     -2.617000
C          -5.406000    -12.763000     -6.450000
C          -8.362000     -8.829000     -2.287000
C          -8.766000    -11.856000     -7.195000
C          -6.645000    -14.288000     -1.443000
C          -8.774000     -8.880000     -5.103000
C          -4.299000    -12.741000     -4.314000
C          -9.976000    -14.358000     -4.209000
C          -9.638000     -9.243000     -2.870000
C         -10.646000    -13.374000     -2.180000
C         -10.770000    -13.207000     -4.543000
C         -10.581000    -10.434000     -4.561000
C          -8.490000     -9.600000     -6.294000
C          -8.620000    -14.938000     -2.293000
C          -6.566000    -10.881000     -6.964000
C         -10.059000    -12.652000     -1.039000
C          -9.871000    -11.109000     -1.221000
C          -7.371000    -11.962000     -7.287000
C          -5.073000     -9.449000     -3.400000
C          -4.787000    -10.610000     -5.347000
C          -4.165000    -11.320000     -4.323000
C          -4.573000    -13.478000     -3.137000
C          -8.563000    -10.753000     -0.788000
C          -9.866000    -14.474000     -2.825000
C          -5.322000    -14.591000     -3.458000
C          -9.852000     -9.294000     -4.283000
C          -7.631000    -15.339000     -3.212000
C         -10.366000    -12.479000     -5.717000
C          -6.466000     -9.678000     -1.391000
C          -4.860000    -13.438000     -5.346000
C         -11.047000    -12.548000     -3.365000
C          -4.758000    -11.347000     -2.000000
C         -10.300000    -11.112000     -5.719000
C          -8.963000    -14.810000     -5.099000
C          -6.576000     -8.986000     -5.385000
C          -7.548000     -8.494000     -4.513000
C          -8.690000    -14.135000     -6.302000
C          -7.892000     -9.589000     -1.245000
C         -10.341000    -10.363000     -2.343000
C          -6.101000     -8.953000     -2.525000
C          -8.661000    -13.092000     -0.681000
C          -6.755000    -14.992000     -5.426000
C         -10.903000    -11.089000     -3.397000
C          -9.412000    -13.014000     -6.662000
C          -5.749000    -10.879000     -1.086000
C          -6.628000    -13.158000     -7.000000
C          -4.811000    -12.752000     -1.981000
C          -5.383000    -11.336000     -6.411000
C          -7.787000    -15.371000     -4.611000
C          -7.319000    -14.269000     -6.535000
C          -8.032000    -14.241000     -1.169000
C          -7.897000    -11.927000     -0.470000
C          -5.379000     -9.469000     -4.744000
C          -5.507000    -14.592000     -4.871000
C          -9.254000    -10.690000     -6.593000
C          -7.316000     -8.456000     -3.116000
C          -7.148000     -9.621000     -6.490000
C          -6.478000    -11.981000     -0.614000
C          -4.389000    -10.647000     -3.149000
O          -7.986000    -28.747000     -2.722000
C          -7.673000    -30.065000     -2.155000
H          -7.688000    -30.149000     -1.061000
H          -6.692000    -30.413000     -2.500000
H          -8.442000    -30.766000     -2.502000
O          -9.989000    -28.833000     -1.775000
C          -9.252000    -28.226000     -2.523000
C          -9.407000    -26.905000     -3.223000
H         -10.181000    -26.254000     -2.797000
H          -9.668000    -27.031000     -4.281000
C          -7.989000    -26.181000     -3.166000
H          -7.573000    -26.097000     -2.154000
H          -7.292000    -26.725000     -3.816000
C          -7.989000    -24.816000     -3.763000
H          -6.920000    -24.651000     -3.946000
H          -8.386000    -24.923000     -4.781000
C          -8.628000    -23.757000     -3.062000
C          -8.257000    -23.711000     -1.565000
C          -8.980000    -24.449000     -0.579000
H          -9.811000    -25.084000     -0.875000
C          -8.671000    -24.287000      0.801000
H          -9.085000    -24.944000      1.560000
C          -7.542000    -23.510000      1.109000
H          -7.279000    -23.307000      2.142000
C          -6.801000    -22.804000      0.139000
H          -5.915000    -22.220000      0.369000
C          -7.169000    -22.913000     -1.198000
H          -6.709000    -22.397000     -2.034000
C         -13.586000    -21.528000     -2.465000
C         -12.027000    -19.698000     -2.084000
C         -13.017000    -17.410000     -5.833000
C         -12.685000    -23.760000     -6.902000
C         -10.259000    -18.630000     -7.581000
C         -12.394000    -21.036000     -1.925000
C         -11.792000    -21.722000     -8.700000
C         -14.523000    -18.558000     -4.290000
C          -8.691000    -20.239000     -4.197000
C         -11.316000    -23.627000     -7.119000
C          -8.977000    -22.484000     -3.805000
C          -8.383000    -20.814000     -5.444000
C          -9.689000    -22.064000     -7.521000
C         -11.512000    -20.315000     -8.840000
C         -10.076000    -20.883000     -2.311000
C         -12.656000    -18.362000     -7.859000
C         -10.062000    -23.488000     -3.530000
C         -10.737000    -24.114000     -4.771000
C         -11.426000    -17.847000     -7.359000
C         -15.248000    -21.219000     -6.527000
C         -14.626000    -19.049000     -6.616000
C         -15.107000    -19.248000     -5.391000
C         -14.221000    -19.248000     -3.124000
C         -12.140000    -24.066000     -4.585000
C          -9.032000    -21.127000     -3.236000
C         -12.959000    -18.797000     -2.619000
C         -10.880000    -22.560000     -8.044000
C         -10.652000    -19.617000     -2.333000
C          -8.695000    -20.092000     -6.646000
C         -14.315000    -23.265000     -5.397000
C         -13.445000    -17.625000     -4.515000
C          -8.654000    -22.156000     -5.249000
C         -15.135000    -21.414000     -4.077000
C          -9.343000    -20.758000     -7.674000
C          -9.182000    -18.906000     -4.131000
C         -13.720000    -20.479000     -8.295000
C         -13.164000    -21.800000     -8.395000
C          -9.566000    -18.236000     -5.293000
C         -13.101000    -23.962000     -5.617000
C         -10.290000    -23.764000     -6.106000
C         -14.622000    -22.516000     -6.577000
C         -11.196000    -23.060000     -2.687000
C         -11.086000    -17.675000     -3.767000
C          -9.331000    -22.774000     -6.336000
C          -9.234000    -18.776000     -6.557000
C         -14.579000    -22.687000     -4.119000
C         -11.631000    -17.253000     -6.113000
C         -14.508000    -20.637000     -3.059000
C         -13.597000    -18.118000     -6.895000
C         -10.178000    -18.608000     -3.224000
C         -10.699000    -17.470000     -5.080000
C         -11.184000    -21.802000     -2.062000
C         -12.374000    -23.382000     -3.353000
C         -14.731000    -20.232000     -7.438000
C         -12.488000    -17.783000     -3.519000
C         -10.296000    -19.869000     -8.292000
C         -13.613000    -22.829000     -7.515000
C         -12.688000    -19.565000     -8.575000
C         -13.607000    -22.724000     -3.132000
C         -15.340000    -20.640000     -5.262000
$end

--------------------------------------------------------------

             Standard Nuclear Orientation (Angstroms)
    I     Atom           X                Y                Z
 ----------------------------------------------------------------
    1      O       1.6618040639    -7.6462489107    -2.6544392925
    2      C       0.3503352234    -8.1118121982    -2.2198517805
    3      H      -0.0154323842    -7.6161232412    -1.3127070759
    4      H       0.3126007772    -9.1896096030    -2.0165542995
    5      H      -0.3448952439    -7.9935954728    -3.0599972460
    6      O       0.9852160919    -5.3951839398    -2.6576350466
    7      C       1.7354099417    -6.2801531419    -2.9828498972
    8      C       2.9959642157    -5.9547858405    -3.8542952721
    9      H       2.8273962548    -6.4913831885    -4.7959943369
   10      H       3.8957978570    -6.3454228496    -3.3620502670
   11      C       3.4081600138    -4.5146789213    -4.1964614384
   12      H       4.3191791299    -4.4891014751    -4.8069849549
   13      H       2.5627418923    -4.0944140890    -4.7552732767
   14      C       3.7295591948    -3.6598949152    -2.9183550776
   15      H       3.1602043139    -4.0750251297    -2.0776833673
   16      H       4.7907352700    -3.8430389763    -2.7040548432
   17      C       3.4576460047    -2.1488221691    -2.8281975878
   18      C       2.2794979628    -1.7606338542    -3.7334887143
   19      C       2.4553282604    -1.1358283474    -4.9998171808
   20      H       3.4575245143    -0.9333276958    -5.3668064924
   21      C       1.3837108435    -0.7953129663    -5.8056672829
   22      H       1.6502673835    -0.4939648297    -6.8150422933
   23      C       0.1132751407    -1.0018456549    -5.3794720537
   24      H      -0.6482350665    -0.8574086244    -6.1402355836
   25      C      -0.1266465697    -1.5790968853    -4.1503038024
   26      H      -1.1706615888    -1.8510859724    -4.0236050403
   27      C       0.9113512218    -2.0914115807    -3.3775553066
   28      H       0.7547481845    -2.6219415551    -2.4434126864
   29      C       5.0051833932     3.1649031500    -2.3382514031
   30      C       3.0793721716     3.0040101228    -0.9319944662
   31      C       5.2316591382     3.3696452852     3.0273314539
   32      C       8.5811127586    -0.3176557860    -1.0628803078
   33      C       5.2947837906    -0.1268965589     3.6887574974
   34      C       3.7202755005     2.6472861982    -2.0839024333
   35      C       8.2912151989    -0.7770165202     1.7312471268
   36      C       5.6196846879     4.4942425178     0.9361245686
   37      C       2.7372223592    -0.6437319063     0.5531457949
   38      C       7.8529430370    -1.4759460901    -0.5455859738
   39      C       3.6418851923    -1.4737593761    -1.4535022953
   40      C       3.6538523292    -1.6926934682     0.9084796375
   41      C       6.3903360676    -2.1569659185     1.0557271893
   42      C       7.5965090358    -0.3627723359     2.8988609768
   43      C       2.5869579330     0.8579448299    -1.3359226481
   44      C       6.7641735682     1.7896976349     3.5813034244
   45      C       4.5380542384    -1.0430907822    -2.5393842423
   46      C       6.0711129360    -1.2252364460    -2.2827308054
   47      C       5.5107607754     1.2515227354     3.8267400729
   48      C       8.6847757314     2.9961435312     0.1407301248
   49      C       7.5233030088     3.4963054577     2.0437133517
   50      C       7.0306030191     4.2924451971     1.0127098428
   51      C       4.9007325575     4.4295960264    -0.2814560921
   52      C       6.7426577186    -0.0260684374    -2.6516653417
   53      C       2.7212170858    -0.4749274532    -0.8296994198
   54      C       3.6293325366     3.9533774381    -0.0373888002
   55      C       7.6811115875    -1.7075737872     0.8550526530
   56      C       2.3796709404     1.8898163174    -0.4001041101
   57      C       4.3943792989    -1.4995062319     2.1274031376
   58      C       8.2424098787     1.7460887124    -1.9258241093
   59      C       4.7594354861     4.0857490818     1.9152356060
   60      C       4.2902619065    -2.0862159411    -0.2485929242
   61      C       6.9862094171     3.7807373617    -1.3292746361
   62      C       5.7374270683    -1.7546157729     2.1921396140
   63      C       2.4874558060     0.4241065197     1.4586350356
   64      C       8.6837377467     1.3771650452     2.0881670517
   65      C       8.9809458759     0.3393867217     1.2039072035
   66      C       3.1446155203     0.5016051885     2.6994001488
   67      C       8.0055033102     0.3428638262    -2.1195976800
   68      C       6.6290108006    -1.8844980661    -1.1467624568
   69      C       8.9730302950     1.9030729783    -0.7483880187
   70      C       4.4534297125     0.4275511450    -2.8652968249
   71      C       2.8061624965     2.6046241069     1.8574910211
   72      C       5.7392294076    -2.2877447149    -0.1470038795
   73      C       4.0474738732    -0.4710185535     3.0819898130
   74      C       7.2578558601     2.7311507037    -2.2572170144
   75      C       4.5361707183     2.2602373793     3.5144853887
   76      C       5.6101405189     4.0577841708    -1.4121869568
   77      C       6.6251188066     3.0597584408     3.0522171152
   78      C       2.2404721198     1.7104814727     0.9895086783
   79      C       3.3205775833     1.8596894433     2.9760416303
   80      C       3.4582012774     1.2949959135    -2.4058994634
   81      C       5.7731654034     0.9034420532    -2.9967028740
   82      C       8.5252573814     2.6695849503     1.4704990480
   83      C       3.5127972695     3.7382628850     1.3665129986
   84      C       6.3451007569    -0.8583890854     3.1214331159
   85      C       9.1435036100     0.5911443690    -0.1806757915
   86      C       7.8774072805     0.9416662316     3.1424943076
   87      C       6.0425479333     2.2917400427    -2.8036361888
   88      C       7.6927030123     3.9470704827    -0.1378208633
   89      O     -10.7013842963     4.6880156335    -1.4940252607
   90      C     -11.8798540569     5.3142858909    -2.1068682975
   91      H     -11.9086871737     5.3468237523    -3.2033293953
   92      H     -12.0080072239     6.3404352790    -1.7420612264
   93      H     -12.7570344009     4.7217654753    -1.8193875134
   94      O     -11.2009755857     2.7849323292    -2.5162270415
   95      C     -10.4788190616     3.3407698322    -1.7158167560
   96      C      -9.2676131812     2.8640359155    -0.9643042227
   97      H      -8.7929480873     1.9703781295    -1.3890651085
   98      H      -9.5049510228     2.6131610972     0.0768939210
   99      C      -8.2324183161     4.0747414045    -0.9376057169
  100      H      -8.0022787011     4.4849317705    -1.9290872454
  101      H      -8.6325299340     4.8629356821    -0.2872938886
  102      C      -6.9372146129     3.7409867204    -0.2813365814
  103      H      -6.5383185540     4.7369547967    -0.0524162348
  104      H      -7.1855953513     3.3544848692     0.7158120173
  105      C      -6.0207780314     2.8901927112    -0.9577214910
  106      C      -5.8130576867     3.2777082063    -2.4367245334
  107      C      -6.6469777455     2.7720527046    -3.4800168458
  108      H      -7.4718124052     2.1051367625    -3.2427977268
  109      C      -6.3469807522     3.0692734741    -4.8393499978
  110      H      -7.0421964514     2.8393533912    -5.6411840749
  111      C      -5.3144549506     3.9929966462    -5.0714275070
  112      H      -5.0031442272     4.2272064719    -6.0841951956
  113      C      -4.5066192147     4.5240233366    -4.0448657320
  114      H      -3.7219552447     5.2546508014    -4.2164406772
  115      C      -4.7666132926     4.1581576835    -2.7282718678
  116      H      -4.2016435806     4.4637807203    -1.8541118230
  117      C      -4.9753071535    -2.4346178092    -1.6359526949
  118      C      -2.8164264828    -1.3369770313    -1.8787715012
  119      C      -1.0164057477    -2.9278142266     1.9290109730
  120      C      -7.1624106820    -1.1491638257     2.7280798682
  121      C      -1.6514011578    -0.0060177399     3.7207570822
  122      C      -4.1930723849    -1.3772729802    -2.1099344239
  123      C      -5.0680339128    -0.8022448771     4.6456121865
  124      C      -2.4016181043    -4.0848244647     0.2830149110
  125      C      -2.6765300836     1.9789200626     0.3283989635
  126      C      -6.7267393412     0.1450304711     3.0004593923
  127      C      -4.9034197118     2.2350129048    -0.1724643312
  128      C      -3.2277006674     2.3812256140     1.5591951411
  129      C      -4.8516847260     1.3514327184     3.5300496181
  130      C      -3.6435738729    -0.8621501871     4.8576828082
  131      C      -3.5264737639     0.8304574125    -1.6333824417
  132      C      -1.9615257128    -2.4055405730     3.9228212655
  133      C      -6.1162622561     1.4217231922    -0.5308479328
  134      C      -6.9447402926     0.8805847846     0.6559019848
  135      C      -1.1501893869    -1.3176350748     3.4911732684
  136      C      -5.2695997226    -4.2244034712     2.3724919122
  137      C      -3.0220255421    -4.1287638067     2.5797800155
  138      C      -3.2639515129    -4.5190438101     1.3304840764
  139      C      -2.9418379187    -3.6008342332    -0.9005289234
  140      C      -7.2140794388    -0.4897037880     0.4212220923
  141      C      -3.5688058839     1.8789779855    -0.6826408366
  142      C      -2.1849863488    -2.4667532511    -1.3388279391
  143      C      -5.6366989367     0.2964213522     3.9869190810
  144      C      -2.4315183461    -0.0256123341    -1.5765210136
  145      C      -2.6605685258     1.8791376220     2.7797281321
  146      C      -6.9824170771    -2.8113238187     1.1880225771
  147      C      -1.2567952328    -3.2605024839     0.5880917290
  148      C      -4.5841072251     2.4360834930     1.2954113973
  149      C      -5.3068444053    -4.0074361319    -0.0779839615
  150      C      -3.5106860627     1.3789393455     3.7530450680
  151      C      -1.4922483835     1.1920396416     0.3034578701
  152      C      -4.2871610852    -2.9563915396     4.2259125512
  153      C      -5.4464530654    -2.1099861906     4.2876951544
  154      C      -0.9902757119     0.6331139076     1.4791387200
  155      C      -7.3890848192    -1.4740530381     1.4211174222
  156      C      -6.5696839229     1.1997898625     2.0204439731
  157      C      -6.3867673615    -3.3143034568     2.3879654507
  158      C      -5.9202989081     0.2406920683    -1.3948808319
  159      C      -0.7195710001    -0.9370069130    -0.0749644193
  160      C      -5.3973616118     1.8950044770     2.3286939341
  161      C      -1.5027544306     1.0501477855     2.7293260290
  162      C      -6.4165298419    -3.1707813184    -0.0719877176
  163      C      -0.5567163383    -1.6242835920     2.2659657646
  164      C      -4.3542934099    -3.5538218669    -1.0371829500
  165      C      -1.8932904689    -3.3529617533     2.9368952751
  166      C      -1.3872516203     0.1771141795    -0.6251814496
  167      C      -0.4981508615    -0.6417109870     1.2590282487
  168      C      -4.6634245584    -0.0256912539    -1.9628947357
  169      C      -6.5406331122    -0.8459093182    -0.7870922979
  170      C      -4.2377539730    -3.9752452326     3.3443939244
  171      C      -1.1370216057    -2.2683366509    -0.3783917101
  172      C      -2.9000414834     0.2294660725     4.3745580546
  173      C      -6.5049117742    -2.2840182595     3.3473654246
  174      C      -3.1742943278    -2.1737288089     4.5833851100
  175      C      -6.1762050667    -2.1925164681    -1.0235989224
  176      C      -4.6635017719    -4.4172324061     1.1317694307
 ----------------------------------------------------------------

    9   -5804.2782418249      8.40E-06 Convergence criterion met
 Total energy in the final basis set = -5804.2782418249

                    Orbital Energies (a.u.)
 --------------------------------------------------------------

 Alpha MOs
 -- Occupied --
-19.200 -19.182 -19.154 -19.133 -10.332 -10.316 -10.250 -10.245
-10.244 -10.242 -10.242 -10.239 -10.238 -10.234 -10.232 -10.232
-10.229 -10.229 -10.228 -10.226 -10.226 -10.225 -10.223 -10.223
-10.223 -10.222 -10.222 -10.222 -10.222 -10.221 -10.221 -10.221
-10.221 -10.221 -10.221 -10.221 -10.220 -10.220 -10.220 -10.220
-10.220 -10.219 -10.219 -10.219 -10.219 -10.219 -10.218 -10.218
-10.218 -10.218 -10.217 -10.217 -10.217 -10.216 -10.216 -10.216
-10.216 -10.216 -10.216 -10.216 -10.216 -10.216 -10.216 -10.215
-10.215 -10.215 -10.215 -10.215 -10.215 -10.215 -10.215 -10.215
-10.215 -10.214 -10.214 -10.214 -10.214 -10.214 -10.214 -10.214
-10.213 -10.213 -10.213 -10.213 -10.213 -10.213 -10.213 -10.213
-10.213 -10.213 -10.213 -10.213 -10.213 -10.213 -10.213 -10.213
-10.212 -10.212 -10.212 -10.212 -10.212 -10.211 -10.211 -10.211
-10.211 -10.211 -10.211 -10.211 -10.211 -10.211 -10.211 -10.211
-10.210 -10.210 -10.210 -10.210 -10.210 -10.210 -10.210 -10.209
-10.209 -10.209 -10.209 -10.209 -10.208 -10.208 -10.208 -10.208
-10.207 -10.207 -10.207 -10.206 -10.205 -10.205 -10.202 -10.202
-10.202 -10.201 -10.201 -10.200 -10.199 -10.194 -10.192 -10.190
-10.187 -10.186 -10.183 -10.182  -1.091  -1.086  -1.025  -0.997
 -0.980  -0.978  -0.964  -0.960  -0.959  -0.958  -0.956  -0.956
 -0.935  -0.927  -0.924  -0.923  -0.922  -0.922  -0.919  -0.917
 -0.917  -0.917  -0.893  -0.893  -0.888  -0.886  -0.884  -0.879
 -0.873  -0.866  -0.853  -0.849  -0.840  -0.839  -0.837  -0.836
 -0.833  -0.832  -0.825  -0.815  -0.808  -0.801  -0.797  -0.795
 -0.794  -0.792  -0.791  -0.790  -0.790  -0.787  -0.780  -0.779
 -0.771  -0.768  -0.766  -0.765  -0.765  -0.764  -0.760  -0.758
 -0.753  -0.745  -0.743  -0.736  -0.733  -0.728  -0.717  -0.714
 -0.713  -0.711  -0.711  -0.709  -0.708  -0.707  -0.707  -0.705
 -0.705  -0.704  -0.703  -0.702  -0.701  -0.700  -0.672  -0.668
 -0.658  -0.656  -0.655  -0.651  -0.647  -0.643  -0.632  -0.628
 -0.626  -0.625  -0.622  -0.622  -0.620  -0.619  -0.617  -0.614
 -0.613  -0.613  -0.611  -0.610  -0.610  -0.609  -0.607  -0.605
 -0.604  -0.601  -0.600  -0.598  -0.565  -0.563  -0.562  -0.559
 -0.557  -0.557  -0.555  -0.555  -0.555  -0.553  -0.552  -0.549
 -0.538  -0.533  -0.531  -0.528  -0.528  -0.525  -0.524  -0.524
 -0.523  -0.522  -0.519  -0.515  -0.513  -0.512  -0.511  -0.511
 -0.508  -0.502  -0.501  -0.501  -0.496  -0.488  -0.488  -0.484
 -0.481  -0.481  -0.480  -0.478  -0.477  -0.476  -0.474  -0.473
 -0.471  -0.470  -0.468  -0.468  -0.466  -0.465  -0.465  -0.464
 -0.463  -0.462  -0.461  -0.460  -0.459  -0.459  -0.457  -0.456
 -0.454  -0.452  -0.452  -0.448  -0.445  -0.445  -0.444  -0.441
 -0.439  -0.439  -0.437  -0.437  -0.436  -0.435  -0.434  -0.434
 -0.431  -0.429  -0.428  -0.427  -0.425  -0.424  -0.422  -0.422
 -0.421  -0.420  -0.420  -0.419  -0.419  -0.417  -0.417  -0.416
 -0.415  -0.414  -0.414  -0.413  -0.413  -0.413  -0.412  -0.411
 -0.411  -0.408  -0.407  -0.406  -0.403  -0.399  -0.397  -0.395
 -0.394  -0.392  -0.392  -0.391  -0.388  -0.385  -0.385  -0.385
 -0.378  -0.376  -0.372  -0.372  -0.372  -0.365  -0.363  -0.363
 -0.361  -0.361  -0.360  -0.359  -0.358  -0.358  -0.357  -0.357
 -0.356  -0.355  -0.354  -0.353  -0.352  -0.351  -0.350  -0.349
 -0.349  -0.349  -0.348  -0.347  -0.343  -0.343  -0.342  -0.340
 -0.340  -0.339  -0.339  -0.338  -0.338  -0.336  -0.334  -0.332
 -0.331  -0.330  -0.329  -0.328  -0.326  -0.325  -0.323  -0.321
 -0.309  -0.304  -0.297  -0.293  -0.287  -0.286  -0.277  -0.271
 -0.269  -0.268  -0.266  -0.266  -0.265  -0.264  -0.263  -0.262
 -0.262  -0.260  -0.259  -0.259  -0.256  -0.256  -0.253  -0.251
 -0.250  -0.248  -0.242  -0.238  -0.221  -0.218  -0.214  -0.209
 -0.208  -0.207  -0.206  -0.202  -0.200  -0.195

          Ground-State Mulliken Net Atomic Charges

     Atom                 Charge (a.u.)
  ----------------------------------------
      1 O                    -0.479759
      2 C                    -0.091103
      3 H                     0.136818
      4 H                     0.127022
      5 H                     0.124201
      6 O                    -0.443058
      7 C                     0.603069
      8 C                    -0.262988
      9 H                     0.130948
     10 H                     0.128326
     11 C                    -0.182605
     12 H                     0.107064
     13 H                     0.126456
     14 C                    -0.185006
     15 H                     0.126917
     16 H                     0.104056
     17 C                     0.010427
     18 C                     0.051801
     19 C                    -0.109704
     20 H                     0.081144
     21 C                    -0.071959
     22 H                     0.083220
     23 C                    -0.087241
     24 H                     0.086959
     25 C                    -0.094217
     26 H                     0.090907
     27 C                    -0.094920
     28 H                     0.106953
     29 C                    -0.022609
     30 C                     0.018770
     31 C                    -0.011590
     32 C                    -0.003484
     33 C                    -0.040841
     34 C                     0.003318
     35 C                    -0.013259
     36 C                     0.021708
     37 C                     0.003446
     38 C                    -0.012064
     39 C                    -0.087830
     40 C                    -0.017391
     41 C                     0.006700
     42 C                     0.019375
     43 C                    -0.029124
     44 C                    -0.004384
     45 C                    -0.092346
     46 C                     0.001663
     47 C                     0.017278
     48 C                    -0.012146
     49 C                    -0.008581
     50 C                    -0.013283
     51 C                    -0.000582
     52 C                     0.018458
     53 C                     0.055986
     54 C                    -0.019858
     55 C                    -0.020799
     56 C                     0.008429
     57 C                    -0.009449
     58 C                    -0.013657
     59 C                     0.004250
     60 C                     0.041958
     61 C                     0.025753
     62 C                     0.009024
     63 C                     0.005984
     64 C                    -0.010253
     65 C                     0.011297
     66 C                     0.029470
     67 C                     0.007768
     68 C                    -0.024570
     69 C                    -0.016595
     70 C                     0.062123
     71 C                    -0.001739
     72 C                     0.010249
     73 C                    -0.016286
     74 C                    -0.007957
     75 C                     0.008774
     76 C                    -0.009929
     77 C                    -0.001584
     78 C                     0.005337
     79 C                    -0.027816
     80 C                    -0.007469
     81 C                     0.016556
     82 C                     0.025279
     83 C                    -0.010758
     84 C                     0.026147
     85 C                     0.007624
     86 C                    -0.015644
     87 C                    -0.018735
     88 C                     0.000134
     89 O                    -0.477325
     90 C                    -0.077959
     91 H                     0.127889
     92 H                     0.119823
     93 H                     0.126024
     94 O                    -0.474675
     95 C                     0.604228
     96 C                    -0.269354
     97 H                     0.134806
     98 H                     0.140017
     99 C                    -0.178130
    100 H                     0.120999
    101 H                     0.121463
    102 C                    -0.196869
    103 H                     0.099572
    104 H                     0.097864
    105 C                     0.041247
    106 C                     0.077806
    107 C                    -0.118547
    108 H                     0.099493
    109 C                    -0.091934
    110 H                     0.104493
    111 C                    -0.091865
    112 H                     0.090021
    113 C                    -0.086686
    114 H                     0.096163
    115 C                    -0.094390
    116 H                     0.093801
    117 C                     0.001172
    118 C                     0.006121
    119 C                    -0.018367
    120 C                    -0.003883
    121 C                    -0.006082
    122 C                    -0.007211
    123 C                    -0.009614
    124 C                    -0.025337
    125 C                     0.019652
    126 C                    -0.022669
    127 C                    -0.096884
    128 C                     0.007720
    129 C                     0.017183
    130 C                    -0.028303
    131 C                     0.000276
    132 C                    -0.012860
    133 C                    -0.090444
    134 C                    -0.008014
    135 C                    -0.006475
    136 C                    -0.035638
    137 C                     0.013073
    138 C                     0.011444
    139 C                     0.007258
    140 C                     0.028227
    141 C                     0.034349
    142 C                    -0.005468
    143 C                     0.018668
    144 C                     0.013650
    145 C                    -0.004405
    146 C                    -0.008852
    147 C                     0.004413
    148 C                     0.032357
    149 C                    -0.012637
    150 C                     0.001496
    151 C                    -0.018660
    152 C                     0.037068
    153 C                    -0.011205
    154 C                     0.017180
    155 C                    -0.000469
    156 C                    -0.017784
    157 C                     0.008765
    158 C                     0.035371
    159 C                     0.000035
    160 C                    -0.000018
    161 C                    -0.033646
    162 C                    -0.017252
    163 C                    -0.010547
    164 C                    -0.000441
    165 C                     0.028653
    166 C                    -0.002642
    167 C                     0.038871
    168 C                    -0.020061
    169 C                     0.003710
    170 C                    -0.025275
    171 C                    -0.010128
    172 C                     0.002710
    173 C                    -0.003474
    174 C                     0.015539
    175 C                     0.021458
    176 C                     0.016382
  ----------------------------------------
  Sum of atomic charges =     0.000000

                    Cartesian Multipole Moments
 -----------------------------------------------------------------
    Charge (ESU x 10^10)
                 0.0000
    Dipole Moment (Debye)
         X      -1.6087      Y      -0.3964      Z      -2.7472
       Tot       3.2081
    Quadrupole Moments (Debye-Ang)
        XX    -829.0677     XY     -29.8040     YY    -769.8238
        XZ     -10.2121     YZ       5.4494     ZZ    -794.2933

 Total job time:  856.82s(wall), 8219.44s(cpu)
        *  Thank you very much for using Q-Chem.  Have a nice day.  *
