 Q-Chem 4.4, Q-Chem, Inc., Pleasanton, CA (2016)
 Q-Chem 4.4.2 for Intel X86 Linux

User input:
--------------------------------------------------------------
$comment
SP
$end

$rem
MEM_STATIC 5000
MEM_TOTAL 20000
JOBTYPE SP
EXCHANGE B3LYP
BASIS 6-31g(d,p)
$end

$molecule
0 1
O          19.998000      8.870000      9.645000
C          18.833000      8.400000     10.284000
H          18.873000      7.342000     10.572000
H          17.922000      8.560000      9.694000
H          18.732000      8.992000     11.202000
O          19.872000      7.472000      7.836000
C          20.431000      8.296000      8.474000
C          21.827000      8.668000      8.017000
H          22.500000      8.042000      8.616000
H          21.949000      9.706000      8.350000
C          22.181000      8.452000      6.528000
H          21.842000      7.456000      6.214000
H          21.541000      9.106000      5.923000
C          23.696000      8.671000      6.238000
H          24.034000      9.571000      6.768000
H          24.217000      7.851000      6.748000
C          24.075000      8.723000      4.806000
C          23.930000      7.388000      4.124000
C          22.852000      7.124000      3.320000
H          22.085000      7.886000      3.211000
C          22.715000      5.897000      2.661000
H          21.812000      5.620000      2.125000
C          23.789000      5.030000      2.678000
H          23.760000      4.078000      2.155000
C          24.909000      5.260000      3.516000
H          25.743000      4.564000      3.520000
C          24.948000      6.462000      4.290000
H          25.825000      6.652000      4.901000
C          27.618000     10.434000      0.916000
C          25.423000     10.698000     -0.173000
C          25.407000     15.228000     -0.000000
C          27.684000     12.724000      5.382000
C          23.411000     15.437000      2.872000
C          26.282000      9.998000      0.720000
C          26.164000     15.109000      5.201000
C          27.193000     13.724000     -0.480000
C          22.550000     11.378000      2.577000
C          26.438000     12.788000      5.897000
C          23.810000     10.042000      4.090000
C          22.627000     12.066000      3.794000
C          24.372000     13.463000      5.522000
C          25.341000     15.855000      4.389000
C          24.139000      9.960000      1.569000
C          25.475000     16.396000      1.997000
C          25.277000      9.508000      4.295000
C          26.151000     10.384000      5.095000
C          24.170000     15.952000      1.825000
C          28.987000     14.341000      2.475000
C          27.562000     15.507000      1.111000
C          28.087000     14.420000      0.391000
C          27.247000     12.307000     -0.593000
C          27.419000     10.549000      4.491000
C          23.332000     10.234000      2.642000
C          25.885000     11.835000     -0.813000
C          25.640000     13.947000      5.808000
C          24.110000     10.698000      0.373000
C          22.683000     13.518000      3.878000
C          29.068000     12.162000      3.595000
C          25.876000     14.108000     -0.742000
C          23.463000     11.360000      4.673000
C          28.879000     12.312000      1.172000
C          23.534000     14.208000      4.741000
C          22.548000     12.221000      1.432000
C          27.385000     15.839000      3.477000
C          27.440000     15.098000      4.703000
C          22.498000     13.622000      1.457000
C          28.204000     11.687000      4.682000
C          25.683000     11.586000      5.727000
C          29.049000     13.555000      3.672000
C          26.091000      9.393000      3.043000
C          23.781000     13.006000     -0.263000
C          24.384000     12.069000      5.454000
C          22.647000     14.278000      2.717000
C          29.039000     11.512000      2.334000
C          24.120000     15.299000      0.568000
C          28.071000     11.576000      0.264000
C          26.238000     15.919000      0.881000
C          23.308000     11.848000      0.339000
C          23.242000     14.173000      0.375000
C          25.516000      9.595000      1.784000
C          27.369000      9.907000      3.231000
C          28.121000     15.435000      2.430000
C          25.082000     13.005000     -0.853000
C          24.042000     15.382000      4.165000
C          28.246000     13.917000      4.782000
C          26.040000     16.253000      3.320000
C          28.192000     10.374000      2.171000
C          28.894000     13.719000      1.230000
O          16.333000     12.201000      7.616000
C          15.028000     11.494000      7.621000
H          14.590000     11.697000      8.605000
H          15.158000     10.406000      7.562000
H          14.369000     11.819000      6.806000
O          16.898000     11.091000      9.550000
C          17.122000     11.886000      8.628000
C          18.388000     12.846000      8.563000
H          18.651000     13.067000      9.605000
H          18.105000     13.809000      8.119000
C          19.582000     12.285000      7.763000
H          20.126000     11.486000      8.283000
H          19.144000     11.976000      6.806000
C          20.621000     13.362000      7.465000
H          21.344000     12.941000      6.754000
H          20.166000     14.131000      6.829000
C          21.468000     13.746000      8.716000
C          22.121000     12.560000      9.289000
C          21.568000     11.865000     10.411000
H          20.602000     12.144000     10.821000
C          22.206000     10.753000     10.929000
H          21.814000     10.281000     11.825000
C          23.447000     10.285000     10.437000
H          23.992000      9.442000     10.851000
C          24.053000     10.985000      9.366000
H          25.033000     10.652000      9.040000
C          23.412000     12.118000      8.773000
H          23.919000     12.688000      8.001000
C          22.136000     17.151000     12.934000
C          24.394000     16.853000     12.196000
C          24.876000     20.994000     10.313000
C          19.009000     18.615000      9.170000
C          24.121000     19.873000      7.065000
C          23.122000     16.304000     12.420000
C          20.556000     20.144000      7.486000
C          23.818000     20.335000     12.508000
C          24.394000     16.076000      8.181000
C          19.478000     18.062000      7.976000
C          22.268000     14.981000      8.590000
C          23.492000     16.472000      7.220000
C          21.192000     17.968000      6.498000
C          21.799000     20.672000      7.124000
C          23.857000     15.494000     10.456000
C          23.492000     21.655000      8.585000
C          21.120000     14.971000      9.519000
C          20.022000     15.958000      9.208000
C          24.444000     20.785000      8.086000
C          20.529000     21.011000     11.360000
C          22.685000     21.777000     10.919000
C          22.703000     21.094000     12.176000
C          23.683000     19.056000     13.078000
C          19.606000     16.613000     10.416000
C          23.637000     15.259000      9.059000
C          24.672000     18.239000     12.457000
C          20.211000     18.828000      7.101000
C          24.860000     16.285000     10.960000
C          23.652000     17.753000      6.627000
C          19.423000     18.797000     11.532000
C          24.935000     20.274000     11.558000
C          22.178000     15.968000      7.425000
C          21.277000     19.283000     12.960000
C          22.494000     18.498000      6.263000
C          25.389000     16.911000      8.654000
C          21.086000     21.645000      9.049000
C          20.041000     20.742000      8.603000
C          25.490000     18.222000      8.115000
C          19.121000     17.926000     10.393000
C          19.918000     16.716000      7.962000
C          19.575000     20.093000     10.881000
C          21.431000     15.360000     10.894000
C          25.901000     18.408000     10.342000
C          21.005000     16.687000      7.076000
C          24.639000     18.586000      7.117000
C          20.372000     18.362000     12.459000
C          25.301000     20.419000      9.105000
C          22.370000     18.554000     13.347000
C          23.729000     21.739000      9.941000
C          25.576000     17.056000     10.034000
C          25.790000     19.126000      9.142000
C          22.767000     15.493000     11.304000
C          20.485000     16.180000     11.429000
C          21.308000     21.730000     10.444000
C          25.471000     18.959000     11.605000
C          22.811000     19.828000      6.547000
C          19.375000     19.964000      9.498000
C          22.134000     21.594000      8.105000
C          20.814000     17.055000     12.441000
C          21.393000     20.549000     12.361000
$end

--------------------------------------------------------------

             Standard Nuclear Orientation (Angstroms)
    I     Atom           X                Y                Z
 ----------------------------------------------------------------
    1      O       0.4882674797    -7.1758699858     0.8924302195
    2      C       0.0222743151    -8.4587702524     0.5410568051
    3      H       0.5489261553    -9.2816051289     1.0405451487
    4      H       0.0431428692    -8.6450736417    -0.5399041334
    5      H      -1.0280732878    -8.4954262990     0.8554057311
    6      O       2.6163275125    -7.4560345389     0.0951665741
    7      C       1.7973333940    -6.8236437822     0.6677323474
    8      C       2.2746008155    -5.5464537740     1.3288302912
    9      H       2.4893237134    -5.8255747038     2.3678642577
   10      H       1.3884120598    -4.9000168620     1.3312403084
   11      C       3.5355499475    -4.8627523241     0.7529374073
   12      H       4.3158563237    -5.6174628886     0.5884171256
   13      H       3.3159594879    -4.5422558348    -0.2729295579
   14      C       4.0377378583    -3.6894564572     1.6465089552
   15      H       3.1750140001    -3.0913845611     1.9676966752
   16      H       4.3976639238    -4.1551435307     2.5725379919
   17      C       5.0876024947    -2.8306308787     1.0488703763
   18      C       6.4030542082    -3.5490795034     0.9012480105
   19      C       6.8038286074    -4.0366544975    -0.3152414083
   20      H       6.1372977791    -3.9245577220    -1.1661144704
   21      C       8.0335766314    -4.6857782451    -0.4731564417
   22      H       8.3135023677    -5.1899188040    -1.3934378547
   23      C       8.9246797386    -4.6488227191     0.5804201058
   24      H       9.9098307248    -5.1015658946     0.5084815810
   25      C       8.5361993364    -4.1737766080     1.8582926227
   26      H       9.2496807454    -4.1568568329     2.6772224123
   27      C       7.2159400990    -3.6481440239     2.0196212708
   28      H       6.9357566905    -3.2505141801     2.9901560537
   29      C       7.6365367952     2.0765483158     0.8617974349
   30      C       7.5427310649     1.4054633863    -1.5076935447
   31      C       4.3801240393     4.4343070149    -2.6803435675
   32      C       3.0891369281     1.8248773806     2.9716382321
   33      C       1.6951895853     2.1912284793    -2.4911170872
   34      C       7.6631916850     1.0635911500    -0.1314876688
   35      C       1.1572650160     2.6331783503     1.0622125442
   36      C       6.2485964661     4.6651037873    -1.2182369912
   37      C       4.3625510980    -0.9853969120    -2.1779706611
   38      C       2.3246761668     0.9121681378     2.3357148227
   39      C       4.6089723350    -1.7839472224     0.0498666255
   40      C       3.0980589753    -0.9749215564    -1.5768783733
   41      C       1.5091008464     0.3021847065     0.3793500535
   42      C       0.9617234481     2.9942718390    -0.2510140119
   43      C       6.4727117089    -0.5925228107    -1.2060750202
   44      C       2.2615607255     4.4435702364    -1.7484311907
   45      C       5.2663768653    -1.3628139589     1.4172495484
   46      C       4.3966339423    -0.5747828802     2.3082076096
   47      C       2.2865588511     3.4335610897    -2.7018469538
   48      C       4.3652941143     4.9238328332     1.7342842251
   49      C       4.0826066828     5.4452538165    -0.4790582641
   50      C       5.4574664101     5.3118190766    -0.2191546276
   51      C       7.2924547284     3.7714081689    -0.8504842621
   52      C       5.0743488827     0.5454023253     2.8427658993
   53      C       5.3198058144    -1.3325077403    -1.2358122451
   54      C       7.3517914861     2.7282667458    -1.8676190224
   55      C       1.3688593179     1.2700674193     1.3629207769
   56      C       6.7801850812     0.3959868449    -2.1569744818
   57      C       2.0832340973     0.0203928409    -1.8898891041
   58      C       5.0920862465     3.0085191941     3.0805192937
   59      C       5.7753363798     4.2540537406    -2.4662961844
   60      C       3.2251770701    -1.3287648177    -0.2246176971
   61      C       6.5789325716     4.0099795172     1.4326372510
   62      C       1.2887181229     0.6407271437    -0.9260427890
   63      C       4.5730106808     0.0700060461    -3.1072227045
   64      C       2.2016277687     4.5806554388     0.7267182367
   65      C       1.8835777048     3.5930470011     1.7159885388
   66      C       3.6007922985     0.9918138035    -3.5207295069
   67      C       4.4153748094     1.7144539664     3.2259387470
   68      C       3.0213164549    -0.2917318194     2.0054933786
   69      C       4.0992135839     3.9215921825     2.7238112986
   70      C       6.4361037053    -0.4347970496     1.2995688967
   71      C       5.5643659585     2.0502930894    -3.4315943114
   72      C       2.4944479719    -0.6194973972     0.7365574749
   73      C       2.3501042109     1.0052381665    -2.8309932573
   74      C       6.3752607099     3.0710710507     2.4780140560
   75      C       3.5627618060     3.4798821764    -3.3167602605
   76      C       7.4476954786     3.4024339364     0.4865065102
   77      C       3.5667516978     5.0359111032    -1.7208119343
   78      C       5.7918978156     0.7223765871    -3.0969840651
   79      C       4.1872665581     2.2645396356    -3.7738656348
   80      C       6.9830255279    -0.1130963848     0.0530155676
   81      C       6.3452042910     0.6005283555     2.2229662122
   82      C       3.4029443241     5.1782586832     0.7555261506
   83      C       6.3538528649     3.0702977377    -2.8175886581
   84      C       1.0432586831     1.9896182261    -1.2232943848
   85      C       2.8633343694     3.2289763142     2.6948488011
   86      C       1.6286300609     4.1297255079    -0.4871210543
   87      C       6.9967225269     1.8534264504     2.0655230412
   88      C       5.5997077864     4.9608343577     1.0858925432
   89      O      -1.4652562194    -6.2239012673    -3.9985950018
   90      C      -1.3838288396    -7.4883528577    -4.7715314528
   91      H      -2.3185033289    -8.0202807372    -4.5600005329
   92      H      -0.5747318202    -8.1334250106    -4.4063343405
   93      H      -1.2457931364    -7.3174564704    -5.8466461302
   94      O      -1.8637074581    -7.4566774932    -2.0977582420
   95      C      -1.7048436017    -6.3927355588    -2.7101917775
   96      C      -1.9270172691    -4.9527431376    -2.0732917160
   97      H      -2.7037890047    -5.0791882048    -1.3088237208
   98      H      -2.3566294142    -4.2747148221    -2.8218269578
   99      C      -0.6511402941    -4.2933447622    -1.5096528890
  100      H      -0.3052254927    -4.7350920007    -0.5662869327
  101      H       0.0747650217    -4.3669729663    -2.3286854647
  102      C      -0.8615435461    -2.8109349529    -1.2156365140
  103      H       0.1193307765    -2.3729375471    -0.9886236601
  104      H      -1.0820413007    -2.2884033176    -2.1543715301
  105      C      -1.7151238208    -2.5649887569     0.0652917366
  106      C      -1.1128713127    -3.2296952620     1.2301055323
  107      C      -1.5727974213    -4.5042821180     1.6901210986
  108      H      -2.3267065313    -5.0588587653     1.1395188864
  109      C      -0.9873751564    -5.1041576240     2.7898220348
  110      H      -1.3955590122    -6.0354760179     3.1709991446
  111      C       0.0311446438    -4.4814306163     3.5487670199
  112      H       0.4788092175    -4.9085676967     4.4410788174
  113      C       0.4689393438    -3.1931376010     3.1577249409
  114      H       1.2062804463    -2.7023541883     3.7846417936
  115      C      -0.0805874002    -2.5493351123     2.0045737309
  116      H       0.2120306834    -1.5340000754     1.7567786139
  117      C      -6.6628550238    -1.5891762500     2.1627947507
  118      C      -5.2878278385    -0.1416302078     3.4841284312
  119      C      -6.6456696802     3.7744266866     1.5484998686
  120      C      -6.0254554615    -0.8749936711    -2.8544541012
  121      C      -3.9150252787     3.9104180689    -0.6653785149
  122      C      -5.4511802072    -1.3693205029     2.8240878698
  123      C      -5.4471542174     1.7985079424    -3.1457662937
  124      C      -8.0085758189     1.7762190215     2.2705268653
  125      C      -2.0422118204     1.0000664233     1.2735946798
  126      C      -4.7041287587    -0.4773194029    -3.0720705551
  127      C      -2.2196440912    -1.1881357511     0.2408938359
  128      C      -1.9253373535     1.1359687249    -0.0908876115
  129      C      -3.1263972735     1.0952068801    -2.6609252651
  130      C      -5.1847365459     3.0520934816    -2.5849300774
  131      C      -3.3554939968    -0.6684836194     2.4111133303
  132      C      -6.3301992021     4.1253709632    -0.7132864813
  133      C      -3.1860640426    -2.2660540222    -0.0509446094
  134      C      -3.9654019893    -2.1122293594    -1.3337011483
  135      C      -5.1234176998     4.3029339236    -0.0618612738
  136      C      -8.6655733647     0.7613677517    -1.0657633087
  137      C      -8.2366522374     2.7548716133     0.0618634115
  138      C      -8.6257129030     1.7721276718     1.0260771554
  139      C      -7.5771843742     0.5797888641     2.8717109468
  140      C      -5.3488608312    -2.4141538643    -1.0965762312
  141      C      -2.3156234894    -0.3779316839     1.4679893190
  142      C      -6.3121514728     0.8666752079     3.4621675364
  143      C      -4.4056892852     0.8501197117    -3.2683083637
  144      C      -3.9288330159     0.2614824262     3.2430697734
  145      C      -2.3350004374     2.3582519038    -0.6878884393
  146      C      -7.6265559593    -1.4890842050    -1.1683538634
  147      C      -6.9895112246     2.7956917205     2.5463760425
  148      C      -2.1185439548    -0.0778981075    -0.8063144229
  149      C      -8.3679729548    -0.6474583856     0.9422533523
  150      C      -2.9338704039     2.3323001379    -1.9798506171
  151      C      -2.6264388535     1.9684172465     2.0685503120
  152      C      -7.3567947439     2.4925511419    -2.2246544129
  153      C      -6.7601776545     1.4364758966    -3.0215879891
  154      C      -3.1104943104     3.1536448195     1.4518097550
  155      C      -6.3593498913    -1.7917107240    -1.8390042724
  156      C      -3.6598249715    -1.1337738625    -2.3763628991
  157      C      -8.0093237646    -0.2370637276    -1.8105800940
  158      C      -4.2871949973    -2.3875069909     0.9037421439
  159      C      -4.6235802414     2.5968426619     3.0529307131
  160      C      -2.7146198197    -0.1368914465    -2.0931338932
  161      C      -2.9318083127     3.3133736908     0.1119369991
  162      C      -7.6801505735    -1.6095995577     0.2215233496
  163      C      -5.3132177228     4.1366416013     1.2957427977
  164      C      -7.8148576072    -0.6588128465     2.1951673511
  165      C      -7.2358269117     3.7583614390     0.2599059256
  166      C      -3.6042234529     1.6035136541     3.0019187524
  167      C      -4.3244565484     3.5244714887     2.0440329106
  168      C      -4.2556772394    -1.6718964796     2.1110504007
  169      C      -5.4830510608    -2.6108515279     0.2925249212
  170      C      -8.2940338335     2.1010259388    -1.2393499400
  171      C      -5.9787335200     2.1922230422     3.3419161019
  172      C      -3.9245666162     3.3157739288    -1.9431720466
  173      C      -7.0441247416     0.1323388590    -2.7599285943
  174      C      -6.3691179737     3.4753094980    -1.9994398239
  175      C      -6.6587116784    -2.2364148120     0.9054109284
  176      C      -8.7766369152     0.5408340925     0.3129936651
 ----------------------------------------------------------------

    9   -5804.2993917621      9.01E-06 Convergence criterion met
 Total energy in the final basis set = -5804.2993917621

                    Orbital Energies (a.u.)
 --------------------------------------------------------------

 Alpha MOs
 -- Occupied --
-19.210 -19.189 -19.140 -19.130 -10.323 -10.309 -10.254 -10.245
-10.244 -10.241 -10.240 -10.240 -10.235 -10.233 -10.233 -10.231
-10.228 -10.228 -10.227 -10.226 -10.225 -10.225 -10.224 -10.223
-10.223 -10.222 -10.222 -10.222 -10.222 -10.222 -10.222 -10.221
-10.221 -10.221 -10.221 -10.221 -10.220 -10.220 -10.220 -10.220
-10.220 -10.220 -10.220 -10.220 -10.220 -10.220 -10.220 -10.219
-10.219 -10.219 -10.219 -10.219 -10.219 -10.219 -10.219 -10.219
-10.218 -10.218 -10.218 -10.218 -10.218 -10.218 -10.218 -10.218
-10.218 -10.218 -10.217 -10.217 -10.217 -10.217 -10.217 -10.217
-10.217 -10.217 -10.217 -10.217 -10.217 -10.217 -10.216 -10.216
-10.216 -10.216 -10.216 -10.216 -10.216 -10.215 -10.215 -10.215
-10.215 -10.215 -10.215 -10.214 -10.214 -10.214 -10.214 -10.214
-10.214 -10.214 -10.213 -10.213 -10.213 -10.213 -10.213 -10.213
-10.213 -10.213 -10.213 -10.212 -10.212 -10.212 -10.212 -10.212
-10.211 -10.211 -10.211 -10.211 -10.211 -10.210 -10.210 -10.210
-10.210 -10.210 -10.210 -10.210 -10.209 -10.209 -10.209 -10.209
-10.209 -10.207 -10.206 -10.206 -10.205 -10.204 -10.204 -10.204
-10.203 -10.202 -10.202 -10.201 -10.201 -10.201 -10.198 -10.197
-10.195 -10.194 -10.194 -10.193  -1.107  -1.096  -1.024  -1.008
 -0.984  -0.982  -0.967  -0.967  -0.964  -0.961  -0.961  -0.958
 -0.935  -0.933  -0.929  -0.926  -0.926  -0.924  -0.923  -0.923
 -0.920  -0.917  -0.898  -0.896  -0.889  -0.888  -0.888  -0.881
 -0.878  -0.877  -0.855  -0.851  -0.845  -0.842  -0.840  -0.839
 -0.838  -0.832  -0.822  -0.820  -0.804  -0.802  -0.799  -0.797
 -0.796  -0.796  -0.795  -0.794  -0.791  -0.790  -0.782  -0.782
 -0.774  -0.772  -0.771  -0.768  -0.766  -0.765  -0.764  -0.762
 -0.751  -0.750  -0.744  -0.744  -0.733  -0.732  -0.720  -0.716
 -0.715  -0.715  -0.714  -0.713  -0.711  -0.710  -0.709  -0.709
 -0.708  -0.706  -0.705  -0.704  -0.703  -0.700  -0.675  -0.672
 -0.663  -0.658  -0.658  -0.654  -0.649  -0.648  -0.633  -0.631
 -0.629  -0.627  -0.626  -0.625  -0.624  -0.620  -0.620  -0.617
 -0.616  -0.615  -0.615  -0.614  -0.613  -0.610  -0.609  -0.609
 -0.608  -0.605  -0.605  -0.601  -0.573  -0.566  -0.564  -0.562
 -0.562  -0.562  -0.559  -0.557  -0.556  -0.555  -0.555  -0.552
 -0.540  -0.536  -0.535  -0.532  -0.531  -0.527  -0.527  -0.525
 -0.524  -0.522  -0.521  -0.518  -0.517  -0.517  -0.516  -0.513
 -0.509  -0.508  -0.501  -0.498  -0.498  -0.491  -0.488  -0.486
 -0.485  -0.484  -0.483  -0.482  -0.480  -0.479  -0.479  -0.478
 -0.476  -0.473  -0.472  -0.470  -0.469  -0.468  -0.467  -0.467
 -0.465  -0.464  -0.464  -0.463  -0.462  -0.461  -0.460  -0.459
 -0.457  -0.456  -0.455  -0.454  -0.450  -0.445  -0.445  -0.443
 -0.442  -0.442  -0.441  -0.439  -0.438  -0.436  -0.435  -0.433
 -0.432  -0.431  -0.430  -0.429  -0.429  -0.428  -0.426  -0.425
 -0.424  -0.423  -0.422  -0.422  -0.420  -0.419  -0.419  -0.417
 -0.417  -0.416  -0.415  -0.415  -0.414  -0.414  -0.413  -0.412
 -0.412  -0.411  -0.410  -0.407  -0.402  -0.398  -0.397  -0.397
 -0.396  -0.395  -0.392  -0.391  -0.390  -0.389  -0.386  -0.385
 -0.383  -0.379  -0.374  -0.374  -0.372  -0.370  -0.368  -0.367
 -0.365  -0.365  -0.364  -0.363  -0.361  -0.360  -0.359  -0.358
 -0.357  -0.357  -0.356  -0.356  -0.355  -0.353  -0.352  -0.352
 -0.352  -0.350  -0.349  -0.348  -0.347  -0.346  -0.343  -0.342
 -0.341  -0.341  -0.340  -0.339  -0.338  -0.337  -0.335  -0.334
 -0.333  -0.332  -0.331  -0.329  -0.328  -0.326  -0.323  -0.323
 -0.315  -0.314  -0.309  -0.296  -0.286  -0.284  -0.275  -0.273
 -0.270  -0.269  -0.268  -0.267  -0.267  -0.266  -0.265  -0.264
 -0.264  -0.262  -0.260  -0.259  -0.258  -0.256  -0.255  -0.253
 -0.252  -0.249  -0.247  -0.245  -0.222  -0.220  -0.214  -0.213
 -0.211  -0.209  -0.207  -0.204  -0.202  -0.200

          Ground-State Mulliken Net Atomic Charges

     Atom                 Charge (a.u.)
  ----------------------------------------
      1 O                    -0.474565
      2 C                    -0.084388
      3 H                     0.110408
      4 H                     0.138451
      5 H                     0.122202
      6 O                    -0.444183
      7 C                     0.595214
      8 C                    -0.260708
      9 H                     0.123446
     10 H                     0.135096
     11 C                    -0.180452
     12 H                     0.131703
     13 H                     0.099607
     14 C                    -0.191746
     15 H                     0.109727
     16 H                     0.104050
     17 C                     0.022139
     18 C                     0.110162
     19 C                    -0.111601
     20 H                     0.092213
     21 C                    -0.085788
     22 H                     0.096233
     23 C                    -0.083999
     24 H                     0.087518
     25 C                    -0.094353
     26 H                     0.093831
     27 C                    -0.111602
     28 H                     0.092069
     29 C                     0.003397
     30 C                    -0.007130
     31 C                     0.019351
     32 C                     0.023856
     33 C                     0.000302
     34 C                     0.009176
     35 C                     0.009912
     36 C                     0.018365
     37 C                    -0.006627
     38 C                    -0.026158
     39 C                    -0.099626
     40 C                    -0.015294
     41 C                    -0.014474
     42 C                     0.024559
     43 C                     0.018615
     44 C                    -0.017874
     45 C                    -0.089823
     46 C                     0.026857
     47 C                     0.004488
     48 C                     0.002053
     49 C                    -0.017886
     50 C                    -0.007076
     51 C                    -0.028799
     52 C                    -0.010052
     53 C                     0.022527
     54 C                    -0.013085
     55 C                     0.020723
     56 C                    -0.012956
     57 C                    -0.005218
     58 C                    -0.008772
     59 C                    -0.003984
     60 C                     0.031416
     61 C                     0.007206
     62 C                    -0.016930
     63 C                     0.015901
     64 C                    -0.012623
     65 C                    -0.015916
     66 C                    -0.013220
     67 C                     0.007886
     68 C                    -0.022893
     69 C                     0.003228
     70 C                     0.041934
     71 C                     0.002414
     72 C                     0.023794
     73 C                     0.004163
     74 C                    -0.025466
     75 C                    -0.006114
     76 C                     0.002160
     77 C                    -0.001123
     78 C                     0.009638
     79 C                    -0.033030
     80 C                     0.008151
     81 C                     0.004895
     82 C                     0.018822
     83 C                     0.011835
     84 C                    -0.003731
     85 C                    -0.028834
     86 C                     0.012243
     87 C                    -0.004703
     88 C                     0.019550
     89 O                    -0.430941
     90 C                    -0.103197
     91 H                     0.141245
     92 H                     0.140223
     93 H                     0.130707
     94 O                    -0.495754
     95 C                     0.583611
     96 C                    -0.239207
     97 H                     0.119516
     98 H                     0.121625
     99 C                    -0.197095
    100 H                     0.130947
    101 H                     0.106394
    102 C                    -0.201716
    103 H                     0.114354
    104 H                     0.114639
    105 C                     0.028056
    106 C                     0.039179
    107 C                    -0.087280
    108 H                     0.103401
    109 C                    -0.072979
    110 H                     0.090616
    111 C                    -0.087991
    112 H                     0.093455
    113 C                    -0.104164
    114 H                     0.094613
    115 C                    -0.095265
    116 H                     0.099305
    117 C                    -0.014433
    118 C                    -0.019333
    119 C                    -0.008013
    120 C                     0.002957
    121 C                     0.000144
    122 C                    -0.032749
    123 C                     0.025072
    124 C                    -0.008217
    125 C                     0.022191
    126 C                    -0.002203
    127 C                    -0.094617
    128 C                    -0.004229
    129 C                    -0.026664
    130 C                     0.004486
    131 C                     0.024009
    132 C                     0.000175
    133 C                    -0.075136
    134 C                     0.030529
    135 C                     0.011826
    136 C                    -0.003294
    137 C                    -0.010318
    138 C                    -0.001290
    139 C                    -0.004635
    140 C                    -0.003759
    141 C                     0.006410
    142 C                     0.034425
    143 C                     0.006754
    144 C                    -0.016536
    145 C                    -0.022415
    146 C                    -0.043648
    147 C                    -0.004511
    148 C                     0.069732
    149 C                     0.042160
    150 C                     0.002337
    151 C                    -0.010706
    152 C                    -0.017214
    153 C                    -0.019670
    154 C                    -0.006490
    155 C                    -0.012703
    156 C                    -0.024719
    157 C                    -0.004298
    158 C                     0.045885
    159 C                    -0.008467
    160 C                    -0.019392
    161 C                     0.024703
    162 C                     0.019188
    163 C                    -0.004364
    164 C                    -0.032322
    165 C                     0.005348
    166 C                    -0.001968
    167 C                     0.015323
    168 C                     0.013928
    169 C                     0.007422
    170 C                    -0.007168
    171 C                    -0.012372
    172 C                    -0.015384
    173 C                     0.024676
    174 C                    -0.010667
    175 C                     0.017192
    176 C                     0.010051
  ----------------------------------------
  Sum of atomic charges =     0.000000

                    Cartesian Multipole Moments
 -----------------------------------------------------------------
    Charge (ESU x 10^10)
                 0.0000
    Dipole Moment (Debye)
         X       2.1953      Y      -3.1744      Z       0.1079
       Tot       3.8611
    Quadrupole Moments (Debye-Ang)
        XX    -814.5983     XY      -3.4277     YY    -806.3381
        XZ       8.9659     YZ       4.2599     ZZ    -791.3347

 Total job time:  895.09s(wall), 8564.54s(cpu)
        *  Thank you very much for using Q-Chem.  Have a nice day.  *
