 Q-Chem 4.4, Q-Chem, Inc., Pleasanton, CA (2016)
 Q-Chem 4.4.2 for Intel X86 Linux

User input:
--------------------------------------------------------------
$comment
SP
$end

$rem
MEM_STATIC 5000
MEM_TOTAL 20000
JOBTYPE SP
EXCHANGE B3LYP
BASIS 6-31g(d,p)
$end

$molecule
0 1
O          -2.792000    -29.605000     -8.235000
C          -2.064000    -30.779000     -8.454000
H          -1.020000    -30.459000     -8.562000
H          -2.537000    -31.401000     -9.224000
H          -2.196000    -31.346000     -7.524000
O          -4.800000    -30.689000     -8.053000
C          -4.182000    -29.693000     -8.003000
C          -4.793000    -28.325000     -7.753000
H          -4.009000    -27.559000     -7.714000
H          -5.377000    -28.537000     -6.849000
C          -5.724000    -27.892000     -8.936000
H          -4.980000    -27.816000     -9.739000
H          -6.482000    -28.634000     -9.216000
C          -6.216000    -26.440000     -8.751000
H          -6.887000    -26.415000     -7.883000
H          -5.329000    -25.801000     -8.666000
C          -7.071000    -25.980000     -9.919000
C          -8.325000    -26.793000    -10.059000
C          -9.383000    -26.619000     -9.174000
H          -9.439000    -25.872000     -8.387000
C         -10.579000    -27.442000     -9.296000
H         -11.436000    -27.495000     -8.632000
C         -10.609000    -28.434000    -10.294000
H         -11.410000    -29.152000    -10.144000
C          -9.501000    -28.760000    -11.062000
H          -9.573000    -29.630000    -11.707000
C          -8.369000    -27.891000    -10.941000
H          -7.510000    -28.071000    -11.581000
C          -7.625000    -24.504000    -15.104000
C          -9.389000    -23.173000    -14.004000
C          -7.224000    -19.155000    -14.406000
C          -3.087000    -23.701000    -12.926000
C          -6.012000    -19.060000    -11.106000
C          -8.582000    -24.312000    -14.076000
C          -2.945000    -21.038000    -11.926000
C          -7.435000    -21.054000    -15.949000
C          -8.264000    -22.402000    -10.191000
C          -3.310000    -23.440000    -11.540000
C          -7.135000    -24.452000    -10.189000
C          -7.034000    -22.174000     -9.620000
C          -4.244000    -22.024000    -10.042000
C          -3.795000    -19.912000    -11.897000
C          -9.017000    -23.925000    -11.901000
C          -5.298000    -18.843000    -13.483000
C          -6.499000    -25.383000    -11.196000
C          -5.029000    -25.207000    -11.518000
C          -6.241000    -18.605000    -12.447000
C          -4.022000    -21.939000    -15.749000
C          -5.260000    -20.085000    -15.542000
C          -6.089000    -20.965000    -16.283000
C          -8.107000    -22.260000    -15.842000
C          -4.880000    -25.359000    -12.914000
C          -8.338000    -23.678000    -10.677000
C          -9.184000    -22.067000    -14.898000
C          -3.228000    -22.110000    -11.051000
C          -9.677000    -22.912000    -12.663000
C          -6.430000    -20.891000     -9.758000
C          -4.091000    -24.225000    -14.905000
C          -8.010000    -20.142000    -15.020000
C          -6.263000    -23.363000     -9.633000
C          -5.976000    -23.392000    -16.276000
C          -5.011000    -20.862000     -9.956000
C          -8.872000    -21.325000    -10.969000
C          -3.426000    -20.355000    -14.018000
C          -2.767000    -21.316000    -13.319000
C          -8.204000    -20.109000    -11.098000
C          -3.893000    -24.689000    -13.596000
C          -4.318000    -24.153000    -10.825000
C          -3.419000    -22.936000    -15.006000
C          -7.111000    -25.512000    -12.487000
C          -9.343000    -20.493000    -13.029000
C          -4.913000    -23.259000     -9.950000
C          -7.021000    -19.841000    -10.466000
C          -5.355000    -24.409000    -15.505000
C          -7.461000    -18.944000    -13.021000
C          -7.354000    -23.477000    -16.009000
C          -5.856000    -19.127000    -14.677000
C          -9.564000    -21.589000    -12.171000
C          -8.495000    -19.599000    -12.342000
C          -8.342000    -24.792000    -12.780000
C          -6.083000    -25.555000    -13.508000
C          -4.007000    -20.640000    -15.239000
C          -9.091000    -20.775000    -14.408000
C          -4.766000    -19.708000    -10.845000
C          -2.800000    -22.633000    -13.766000
C          -4.029000    -19.464000    -13.172000
C          -6.349000    -25.028000    -14.778000
C          -5.273000    -22.190000    -16.391000
O          -7.986000    -28.747000     -2.722000
C          -7.673000    -30.065000     -2.155000
H          -7.688000    -30.149000     -1.061000
H          -6.692000    -30.413000     -2.500000
H          -8.442000    -30.766000     -2.502000
O          -9.989000    -28.833000     -1.775000
C          -9.252000    -28.226000     -2.523000
C          -9.407000    -26.905000     -3.223000
H         -10.181000    -26.254000     -2.797000
H          -9.668000    -27.031000     -4.281000
C          -7.989000    -26.181000     -3.166000
H          -7.573000    -26.097000     -2.154000
H          -7.292000    -26.725000     -3.816000
C          -7.989000    -24.816000     -3.763000
H          -6.920000    -24.651000     -3.946000
H          -8.386000    -24.923000     -4.781000
C          -8.628000    -23.757000     -3.062000
C          -8.257000    -23.711000     -1.565000
C          -8.980000    -24.449000     -0.579000
H          -9.811000    -25.084000     -0.875000
C          -8.671000    -24.287000      0.801000
H          -9.085000    -24.944000      1.560000
C          -7.542000    -23.510000      1.109000
H          -7.279000    -23.307000      2.142000
C          -6.801000    -22.804000      0.139000
H          -5.915000    -22.220000      0.369000
C          -7.169000    -22.913000     -1.198000
H          -6.709000    -22.397000     -2.034000
C         -13.586000    -21.528000     -2.465000
C         -12.027000    -19.698000     -2.084000
C         -13.017000    -17.410000     -5.833000
C         -12.685000    -23.760000     -6.902000
C         -10.259000    -18.630000     -7.581000
C         -12.394000    -21.036000     -1.925000
C         -11.792000    -21.722000     -8.700000
C         -14.523000    -18.558000     -4.290000
C          -8.691000    -20.239000     -4.197000
C         -11.316000    -23.627000     -7.119000
C          -8.977000    -22.484000     -3.805000
C          -8.383000    -20.814000     -5.444000
C          -9.689000    -22.064000     -7.521000
C         -11.512000    -20.315000     -8.840000
C         -10.076000    -20.883000     -2.311000
C         -12.656000    -18.362000     -7.859000
C         -10.062000    -23.488000     -3.530000
C         -10.737000    -24.114000     -4.771000
C         -11.426000    -17.847000     -7.359000
C         -15.248000    -21.219000     -6.527000
C         -14.626000    -19.049000     -6.616000
C         -15.107000    -19.248000     -5.391000
C         -14.221000    -19.248000     -3.124000
C         -12.140000    -24.066000     -4.585000
C          -9.032000    -21.127000     -3.236000
C         -12.959000    -18.797000     -2.619000
C         -10.880000    -22.560000     -8.044000
C         -10.652000    -19.617000     -2.333000
C          -8.695000    -20.092000     -6.646000
C         -14.315000    -23.265000     -5.397000
C         -13.445000    -17.625000     -4.515000
C          -8.654000    -22.156000     -5.249000
C         -15.135000    -21.414000     -4.077000
C          -9.343000    -20.758000     -7.674000
C          -9.182000    -18.906000     -4.131000
C         -13.720000    -20.479000     -8.295000
C         -13.164000    -21.800000     -8.395000
C          -9.566000    -18.236000     -5.293000
C         -13.101000    -23.962000     -5.617000
C         -10.290000    -23.764000     -6.106000
C         -14.622000    -22.516000     -6.577000
C         -11.196000    -23.060000     -2.687000
C         -11.086000    -17.675000     -3.767000
C          -9.331000    -22.774000     -6.336000
C          -9.234000    -18.776000     -6.557000
C         -14.579000    -22.687000     -4.119000
C         -11.631000    -17.253000     -6.113000
C         -14.508000    -20.637000     -3.059000
C         -13.597000    -18.118000     -6.895000
C         -10.178000    -18.608000     -3.224000
C         -10.699000    -17.470000     -5.080000
C         -11.184000    -21.802000     -2.062000
C         -12.374000    -23.382000     -3.353000
C         -14.731000    -20.232000     -7.438000
C         -12.488000    -17.783000     -3.519000
C         -10.296000    -19.869000     -8.292000
C         -13.613000    -22.829000     -7.515000
C         -12.688000    -19.565000     -8.575000
C         -13.607000    -22.724000     -3.132000
C         -15.340000    -20.640000     -5.262000
$end

--------------------------------------------------------------

             Standard Nuclear Orientation (Angstroms)
    I     Atom           X                Y                Z
 ----------------------------------------------------------------
    1      O       3.6746287493     8.2596451440    -1.0262333785
    2      C       4.3587430717     9.4729945676    -0.8997748075
    3      H       4.9526048568     9.5700542994    -1.8173300312
    4      H       4.8376497820     9.5574972089     0.0835972820
    5      H       3.5587414639    10.2236266942    -0.8807527698
    6      O       2.6038231568     8.4648182075     0.9866062567
    7      C       2.7731003413     7.8714450628    -0.0112381931
    8      C       2.1021165325     6.5484563819    -0.3379286869
    9      H       2.3902375546     6.2128035623    -1.3415503593
   10      H       1.0548351956     6.8102117063    -0.1432444513
   11      C       2.5863572068     5.4111247298     0.6242182262
   12      H       3.6440707684     5.3625829325     0.3361093656
   13      H       2.5143255512     5.6541747044     1.6915823395
   14      C       2.0229246952     4.0405829709     0.1897621385
   15      H       0.9366294985     4.0534345959     0.3449638821
   16      H       2.3381295895     3.8694307792    -0.8464172870
   17      C       2.5305312868     2.9149494521     1.0741453865
   18      C       2.0922514077     3.0728586731     2.5010512788
   19      C       0.7771643859     2.8130294914     2.8696973442
   20      H      -0.0008585825     2.4209365392     2.2204998569
   21      C       0.3543683015     3.0082725604     4.2501873351
   22      H      -0.6453548454     2.9456085358     4.6682553314
   23      C       1.2938794447     3.5042996098     5.1733579467
   24      H       0.8309738473     3.8567588327     6.0904816592
   25      C       2.5510193793     3.9535429626     4.7971351472
   26      H       3.1554047330     4.4492972281     5.5501657259
   27      C       2.9369690183     3.6936407227     3.4426168927
   28      H       3.9418916477     3.9645125479     3.1317472040
   29      C       6.5069305168    -0.3325782317     2.8095214572
   30      C       4.5242206152    -1.7839969174     3.0451106015
   31      C       5.5530009906    -4.5118093650    -0.4895468345
   32      C       6.8953101478     1.4953956741    -1.9327996687
   33      C       3.3538917748    -2.9939505289    -2.7760271450
   34      C       5.1199570168    -0.5195802456     3.0349804495
   35      C       5.8350206447    -0.3850993802    -3.7905557130
   36      C       6.9596985221    -3.4968188862     1.2490064097
   37      C       1.7720774322    -0.7031099557     0.2780857957
   38      C       5.5727160584     1.6580707544    -2.4457594068
   39      C       2.5662458128     1.4912491087     0.4548055728
   40      C       1.8927215441    -0.2230961585    -1.0048626650
   41      C       3.6678805541     0.5937707787    -3.0459954133
   42      C       5.2552219539    -1.6698572072    -3.7238638533
   43      C       3.0032018297    -0.2781959030     2.3064888043
   44      C       5.7220528141    -3.7118260726    -2.4870946343
   45      C       3.8487023665     2.1920276448     0.8414845496
   46      C       4.8586436761     2.5054999188    -0.2435563181
   47      C       4.3305883598    -3.9299679243    -2.2988665679
   48      C       8.6340451527    -1.3394978909    -0.9902621058
   49      C       7.6266297478    -3.3374958211    -1.0672521901
   50      C       7.9254287845    -3.1614527047     0.3076841563
   51      C       6.6511675888    -2.6913856775     2.3323138496
   52      C       6.1402705781     2.2173199137     0.2746191045
   53      C       2.2828940543     0.1932852943     1.1755209934
   54      C       5.2740679822    -2.9547477086     2.6823868620
   55      C       5.0577436979     0.7196466618    -3.3779121252
   56      C       3.2066062107    -1.6620497326     2.5997263122
   57      C       2.1846325491    -1.1314941800    -2.0629505629
   58      C       8.1212368415     0.8762999080    -0.1126740758
   59      C       5.7769889545    -4.1841520839     0.8563473286
   60      C       2.4250125578     1.0901533199    -0.9855472784
   61      C       8.2338598809    -1.0396263893     1.4504309988
   62      C       3.0783129137    -0.6699217208    -3.0836818060
   63      C       2.0090301697    -2.1268504034     0.5054479251
   64      C       7.2980317013    -1.8706951251    -2.9379608906
   65      C       7.1422839584    -0.5531926353    -3.2317853790
   66      C       2.3331918586    -2.9499025385    -0.5711324863
   67      C       7.1568427249     1.7969933699    -0.5488489684
   68      C       4.5218023196     2.1182286079    -1.5975300373
   69      C       8.4158879760     0.0019406558    -1.2404961394
   70      C       4.6479917879     1.6229385754     1.8879739437
   71      C       3.4341726242    -3.7250338255     1.2620480399
   72      C       3.3767298170     1.4200549234    -1.9442986490
   73      C       2.3735343531    -2.5016265073    -1.8627044290
   74      C       8.0032010221     0.3354944144     1.1854588001
   75      C       4.2293578396    -4.3121856269    -0.9660278644
   76      C       7.3083586205    -1.4137652738     2.4408175456
   77      C       6.4828005453    -4.0941982734    -1.4417667482
   78      C       2.7057240612    -2.5813631901     1.6462370153
   79      C       3.1896406963    -3.9240563618    -0.1130531078
   80      C       4.1898768928     0.4267545169     2.5799887132
   81      C       6.0496907810     1.7126351257     1.5298280772
   82      C       8.0700824762    -2.2704031165    -1.8638109371
   83      C       4.7679026225    -3.8560427953     1.7607162076
   84      C       3.8393540043    -1.8643966566    -3.5033341457
   85      C       7.6452490040     0.4075736021    -2.3603834050
   86      C       6.1738736316    -2.5793213256    -3.2655636106
   87      C       6.9393178994     0.7248324646     1.9705031197
   88      C       8.5655339016    -1.8322674962     0.3486368167
   89      O      -3.7770421927     7.3794645327     0.3172141506
   90      C      -3.9601670257     8.8221323010     0.5215594605
   91      H      -4.8908608216     9.2613814197     0.1407888340
   92      H      -3.1261788036     9.3849403616     0.0854393711
   93      H      -3.9851036676     9.0029685638     1.6031543061
   94      O      -5.6023503182     6.9942204810     1.5155677160
   95      C      -4.6511779533     6.5076544396     0.9414191119
   96      C      -4.2740107125     5.0787190951     0.6676406362
   97      H      -5.1027955406     4.3652589741     0.7595284183
   98      H      -3.4934105159     4.7235833310     1.3516749351
   99      C      -3.6714801203     5.0326138060    -0.8064625447
  100      H      -4.3289297559     5.4684750506    -1.5693786292
  101      H      -2.7027047382     5.5480906321    -0.8047594097
  102      C      -3.3071668276     3.6617046494    -1.2620038811
  103      H      -2.6202165687     3.8754737113    -2.0901808730
  104      H      -2.6324275386     3.2508804190    -0.4995523458
  105      C      -4.3440343619     2.7458941133    -1.5897229350
  106      C      -5.4336829499     3.3621662199    -2.4917432481
  107      C      -6.5665607245     4.0474217661    -1.9564099087
  108      H      -6.6737243526     4.1650201615    -0.8811943144
  109      C      -7.6006159974     4.5003789000    -2.8234073293
  110      H      -8.3901447270     5.1595411924    -2.4751610698
  111      C      -7.3657728871     4.3817797098    -4.2032685345
  112      H      -8.1321869045     4.6633234611    -4.9179780349
  113      C      -6.2339073596     3.7363731774    -4.7424789161
  114      H      -6.0369161558     3.6613355510    -5.8076154427
  115      C      -5.2723519009     3.2297359414    -3.8743753445
  116      H      -4.3787351214     2.6828268534    -4.1556074566
  117      C      -7.6319995310    -0.8918563814     0.8315722526
  118      C      -7.3499553590    -1.7181104220    -1.4404967044
  119      C      -4.9062437827    -5.3402105583    -0.3548128947
  120      C      -3.1544379785    -0.1454732733     3.0395008747
  121      C      -1.8732727497    -3.8167843052    -1.1489962262
  122      C      -7.5323390067    -0.6630000487    -0.5440078283
  123      C      -1.3800152832    -2.1530530555     2.0371314236
  124      C      -6.8720153219    -4.4199701921     0.7657623701
  125      C      -3.7812418761    -0.6742046798    -2.8760770323
  126      C      -2.2812159533     0.2011677011     2.0117546368
  127      C      -4.0247095788     1.2676009152    -1.6737461674
  128      C      -2.5002607018    -0.4877702028    -2.3239652530
  129      C      -1.2691110319    -0.6373919714     0.1344791366
  130      C      -1.2657453650    -3.2946442317     1.1645714129
  131      C      -6.0303445158    -0.0206675877    -2.2401654149
  132      C      -2.8946840076    -5.0765114322     0.6578030453
  133      C      -4.7095945591     1.7964052144    -0.4440451562
  134      C      -3.9327122410     1.6447677533     0.8829973994
  135      C      -2.7438835844    -4.8661366278    -0.7425992804
  136      C      -5.0573940685    -3.1908366800     3.5598803912
  137      C      -4.8916975178    -4.8339624667     2.0183268559
  138      C      -6.1609317300    -4.4335895866     2.0000766078
  139      C      -7.6373624026    -3.3142182758     0.4216453177
  140      C      -4.8160964745     1.1195040384     1.8571838937
  141      C      -4.6809732496     0.2799053202    -2.5466782415
  142      C      -7.4676402013    -3.0349193905    -0.9727206698
  143      C      -1.3823164983    -0.8566370871     1.5045674920
  144      C      -6.4409032389    -1.3355805791    -2.4337147883
  145      C      -1.7127605327    -1.6370722721    -1.9741363848
  146      C      -5.3250489046    -0.6915324959     3.4360075366
  147      C      -6.2258109805    -4.8737348244    -0.4424245391
  148      C      -2.6636291445     0.6205189648    -1.5131410594
  149      C      -7.0657282154    -2.1440332726     2.5985840891
  150      C      -1.0992324630    -1.6712896148    -0.7320991546
  151      C      -4.2302243915    -1.9832024013    -3.2035914077
  152      C      -2.8455734224    -3.8303790988     2.7190219464
  153      C      -2.3355459985    -2.5178697247     3.0042730109
  154      C      -3.5082456220    -3.1024974807    -2.7882299006
  155      C      -4.4411119620     0.3033108480     2.9492353080
  156      C      -2.6031783266     1.0644700708     0.8943186213
  157      C      -4.5565754573    -1.8544639566     3.7595642989
  158      C      -6.0547365948     1.2753824421    -0.1295341476
  159      C      -5.6472764494    -3.6548878081    -2.5176582000
  160      C      -2.0197958141     0.5138052605    -0.2498466250
  161      C      -2.2041671958    -2.9424231705    -2.2654721425
  162      C      -6.6101765567    -0.8527788945     2.8364155780
  163      C      -3.9731711279    -5.0289515584    -1.3826933623
  164      C      -7.6932405321    -2.2163416853     1.3202328909
  165      C      -4.2244263858    -5.3235697766     0.8700773541
  166      C      -5.5453395877    -2.3173547998    -2.9540253938
  167      C      -4.3519488148    -4.1271115141    -2.3956168533
  168      C      -6.7138641900     0.4176035631    -1.0256921738
  169      C      -6.0578471875     0.8636327068     1.1991405604
  170      C      -4.1204068057    -4.1438370594     3.0258165876
  171      C      -6.5664778762    -4.0252110335    -1.4896983536
  172      C      -1.1557249687    -3.0143549240    -0.2091859953
  173      C      -3.2067993416    -1.5129876115     3.5199973081
  174      C      -2.1741151342    -4.3046198232     1.5775056291
  175      C      -6.9482644457    -0.1049374952     1.7198351640
  176      C      -6.2433009287    -3.2902309622     2.8334674951
 ----------------------------------------------------------------

    9   -5804.2868523864      9.82E-06 Convergence criterion met
 Total energy in the final basis set = -5804.2868523864

                    Orbital Energies (a.u.)
 --------------------------------------------------------------

 Alpha MOs
 -- Occupied --
-19.184 -19.181 -19.146 -19.135 -10.318 -10.316 -10.245 -10.243
-10.243 -10.242 -10.242 -10.240 -10.238 -10.236 -10.236 -10.232
-10.232 -10.231 -10.229 -10.229 -10.228 -10.227 -10.227 -10.226
-10.226 -10.226 -10.226 -10.225 -10.225 -10.225 -10.225 -10.225
-10.225 -10.224 -10.224 -10.224 -10.224 -10.224 -10.224 -10.223
-10.223 -10.223 -10.223 -10.223 -10.222 -10.222 -10.222 -10.222
-10.222 -10.222 -10.222 -10.222 -10.221 -10.221 -10.220 -10.220
-10.220 -10.220 -10.220 -10.219 -10.219 -10.219 -10.219 -10.219
-10.219 -10.219 -10.219 -10.219 -10.219 -10.219 -10.218 -10.218
-10.218 -10.218 -10.218 -10.218 -10.218 -10.218 -10.218 -10.217
-10.217 -10.217 -10.217 -10.217 -10.217 -10.217 -10.217 -10.217
-10.217 -10.217 -10.216 -10.216 -10.216 -10.216 -10.216 -10.216
-10.216 -10.216 -10.216 -10.216 -10.216 -10.216 -10.215 -10.215
-10.215 -10.214 -10.214 -10.214 -10.214 -10.214 -10.214 -10.213
-10.213 -10.213 -10.213 -10.213 -10.213 -10.213 -10.213 -10.213
-10.212 -10.212 -10.212 -10.212 -10.211 -10.211 -10.210 -10.210
-10.209 -10.209 -10.209 -10.209 -10.208 -10.207 -10.207 -10.207
-10.206 -10.206 -10.205 -10.204 -10.204 -10.203 -10.202 -10.202
-10.201 -10.196 -10.193 -10.191  -1.100  -1.088  -1.029  -0.999
 -0.983  -0.981  -0.967  -0.965  -0.963  -0.962  -0.959  -0.958
 -0.938  -0.932  -0.928  -0.926  -0.925  -0.923  -0.922  -0.921
 -0.920  -0.918  -0.897  -0.896  -0.891  -0.887  -0.885  -0.885
 -0.877  -0.876  -0.856  -0.851  -0.843  -0.842  -0.840  -0.838
 -0.836  -0.832  -0.828  -0.822  -0.811  -0.808  -0.800  -0.799
 -0.798  -0.794  -0.794  -0.793  -0.792  -0.790  -0.785  -0.782
 -0.774  -0.773  -0.771  -0.769  -0.768  -0.766  -0.766  -0.763
 -0.756  -0.748  -0.745  -0.742  -0.736  -0.730  -0.720  -0.717
 -0.717  -0.714  -0.713  -0.712  -0.712  -0.711  -0.710  -0.710
 -0.708  -0.708  -0.707  -0.704  -0.702  -0.700  -0.675  -0.673
 -0.661  -0.659  -0.658  -0.655  -0.650  -0.646  -0.636  -0.634
 -0.630  -0.627  -0.625  -0.623  -0.623  -0.622  -0.620  -0.619
 -0.617  -0.616  -0.616  -0.614  -0.614  -0.613  -0.611  -0.609
 -0.608  -0.605  -0.603  -0.602  -0.567  -0.566  -0.564  -0.562
 -0.561  -0.560  -0.559  -0.558  -0.558  -0.557  -0.555  -0.552
 -0.541  -0.539  -0.536  -0.532  -0.531  -0.529  -0.527  -0.527
 -0.524  -0.522  -0.521  -0.520  -0.516  -0.515  -0.514  -0.513
 -0.511  -0.509  -0.504  -0.504  -0.499  -0.491  -0.491  -0.487
 -0.484  -0.484  -0.483  -0.481  -0.480  -0.479  -0.478  -0.474
 -0.474  -0.473  -0.471  -0.471  -0.470  -0.469  -0.468  -0.468
 -0.467  -0.465  -0.465  -0.464  -0.464  -0.462  -0.460  -0.460
 -0.458  -0.457  -0.455  -0.453  -0.449  -0.448  -0.448  -0.447
 -0.443  -0.442  -0.440  -0.440  -0.439  -0.438  -0.436  -0.435
 -0.434  -0.432  -0.432  -0.430  -0.429  -0.427  -0.427  -0.426
 -0.425  -0.424  -0.423  -0.423  -0.422  -0.422  -0.421  -0.420
 -0.419  -0.418  -0.418  -0.417  -0.416  -0.415  -0.415  -0.414
 -0.413  -0.413  -0.410  -0.409  -0.406  -0.402  -0.400  -0.398
 -0.396  -0.395  -0.395  -0.394  -0.392  -0.391  -0.388  -0.386
 -0.382  -0.379  -0.375  -0.374  -0.374  -0.368  -0.367  -0.366
 -0.365  -0.364  -0.363  -0.363  -0.362  -0.361  -0.361  -0.360
 -0.360  -0.359  -0.357  -0.356  -0.356  -0.355  -0.354  -0.353
 -0.353  -0.352  -0.351  -0.348  -0.346  -0.346  -0.345  -0.344
 -0.343  -0.343  -0.342  -0.341  -0.341  -0.339  -0.338  -0.335
 -0.334  -0.333  -0.333  -0.332  -0.329  -0.328  -0.327  -0.325
 -0.308  -0.307  -0.294  -0.293  -0.290  -0.288  -0.277  -0.275
 -0.274  -0.271  -0.269  -0.268  -0.268  -0.267  -0.265  -0.265
 -0.264  -0.263  -0.262  -0.260  -0.260  -0.258  -0.257  -0.254
 -0.253  -0.253  -0.250  -0.245  -0.224  -0.219  -0.217  -0.213
 -0.210  -0.209  -0.209  -0.207  -0.204  -0.198

          Ground-State Mulliken Net Atomic Charges

     Atom                 Charge (a.u.)
  ----------------------------------------
      1 O                    -0.482622
      2 C                    -0.076081
      3 H                     0.123064
      4 H                     0.124263
      5 H                     0.113917
      6 O                    -0.432065
      7 C                     0.573137
      8 C                    -0.243236
      9 H                     0.122675
     10 H                     0.130465
     11 C                    -0.199986
     12 H                     0.110236
     13 H                     0.135067
     14 C                    -0.165722
     15 H                     0.110508
     16 H                     0.105964
     17 C                     0.016707
     18 C                     0.108697
     19 C                    -0.130876
     20 H                     0.090609
     21 C                    -0.093933
     22 H                     0.097382
     23 C                    -0.085362
     24 H                     0.085156
     25 C                    -0.082134
     26 H                     0.101068
     27 C                    -0.120889
     28 H                     0.092603
     29 C                    -0.018890
     30 C                     0.004310
     31 C                    -0.028660
     32 C                    -0.006990
     33 C                    -0.032267
     34 C                     0.021975
     35 C                    -0.027895
     36 C                     0.029965
     37 C                    -0.011387
     38 C                    -0.018134
     39 C                    -0.100597
     40 C                     0.002300
     41 C                    -0.009373
     42 C                     0.011165
     43 C                    -0.016606
     44 C                     0.000490
     45 C                    -0.082688
     46 C                     0.006619
     47 C                    -0.010095
     48 C                     0.012022
     49 C                     0.006088
     50 C                    -0.034129
     51 C                    -0.005845
     52 C                     0.036865
     53 C                     0.046763
     54 C                    -0.027171
     55 C                     0.003666
     56 C                    -0.024582
     57 C                     0.009106
     58 C                    -0.017479
     59 C                     0.009724
     60 C                     0.025447
     61 C                     0.002683
     62 C                    -0.023649
     63 C                     0.005120
     64 C                     0.026007
     65 C                    -0.003404
     66 C                     0.032724
     67 C                    -0.003632
     68 C                    -0.005724
     69 C                    -0.022753
     70 C                     0.012469
     71 C                    -0.031440
     72 C                     0.017984
     73 C                     0.017191
     74 C                     0.003297
     75 C                     0.020751
     76 C                    -0.001856
     77 C                     0.012341
     78 C                     0.004763
     79 C                    -0.000131
     80 C                     0.020356
     81 C                    -0.001101
     82 C                     0.005208
     83 C                     0.016874
     84 C                    -0.010716
     85 C                     0.020147
     86 C                     0.001799
     87 C                     0.005158
     88 C                    -0.016236
     89 O                    -0.478192
     90 C                    -0.078713
     91 H                     0.128073
     92 H                     0.120862
     93 H                     0.127506
     94 O                    -0.473558
     95 C                     0.604548
     96 C                    -0.268987
     97 H                     0.135130
     98 H                     0.138353
     99 C                    -0.176997
    100 H                     0.122276
    101 H                     0.118887
    102 C                    -0.196966
    103 H                     0.099539
    104 H                     0.094423
    105 C                     0.042040
    106 C                     0.077661
    107 C                    -0.118402
    108 H                     0.099824
    109 C                    -0.091817
    110 H                     0.105731
    111 C                    -0.091270
    112 H                     0.091251
    113 C                    -0.087106
    114 H                     0.096220
    115 C                    -0.094956
    116 H                     0.093384
    117 C                     0.002046
    118 C                     0.014534
    119 C                    -0.017832
    120 C                    -0.008500
    121 C                    -0.011289
    122 C                    -0.002894
    123 C                    -0.004315
    124 C                    -0.024831
    125 C                     0.019917
    126 C                    -0.024133
    127 C                    -0.096454
    128 C                     0.007923
    129 C                     0.016723
    130 C                    -0.026122
    131 C                     0.000301
    132 C                    -0.010766
    133 C                    -0.090333
    134 C                    -0.009356
    135 C                    -0.005746
    136 C                    -0.034184
    137 C                     0.013489
    138 C                     0.015396
    139 C                     0.006748
    140 C                     0.028430
    141 C                     0.033935
    142 C                    -0.018158
    143 C                     0.027874
    144 C                     0.005476
    145 C                    -0.008856
    146 C                    -0.008586
    147 C                     0.003982
    148 C                     0.031901
    149 C                    -0.011921
    150 C                     0.012175
    151 C                    -0.021485
    152 C                     0.038416
    153 C                    -0.011816
    154 C                     0.014136
    155 C                    -0.000558
    156 C                    -0.023293
    157 C                     0.008551
    158 C                     0.035977
    159 C                    -0.012558
    160 C                    -0.006821
    161 C                    -0.028109
    162 C                    -0.016671
    163 C                    -0.008434
    164 C                     0.000947
    165 C                     0.029255
    166 C                    -0.005864
    167 C                     0.033808
    168 C                    -0.019439
    169 C                     0.003644
    170 C                    -0.024160
    171 C                    -0.000359
    172 C                     0.011780
    173 C                    -0.002627
    174 C                     0.014886
    175 C                     0.022489
    176 C                     0.016426
  ----------------------------------------
  Sum of atomic charges =     0.000000

                    Cartesian Multipole Moments
 -----------------------------------------------------------------
    Charge (ESU x 10^10)
                 0.0000
    Dipole Moment (Debye)
         X       0.0675      Y       3.1323      Z      -2.1160
       Tot       3.7806
    Quadrupole Moments (Debye-Ang)
        XX    -823.6523     XY       7.2332     YY    -799.3344
        XZ      13.4564     YZ     -17.9319     ZZ    -802.9245

 Total job time:  860.84s(wall), 8300.93s(cpu)
        *  Thank you very much for using Q-Chem.  Have a nice day.  *
