 Q-Chem 4.4, Q-Chem, Inc., Pleasanton, CA (2016)
 Q-Chem 4.4.2 for Intel X86 Linux

User input:
--------------------------------------------------------------
$comment
SP
$end

$rem
MEM_STATIC 5000
MEM_TOTAL 20000
JOBTYPE SP
EXCHANGE B3LYP
BASIS 6-31g(d,p)
$end

$molecule
0 1
O          21.234000      3.676000     -0.627000
C          20.139000      4.629000     -0.860000
H          19.172000      4.111000     -0.871000
H          20.405000      5.149000     -1.789000
H          20.085000      5.317000     -0.007000
O          22.759000      5.387000     -0.611000
C          22.518000      4.190000     -0.544000
C          23.609000      3.050000     -0.449000
H          23.609000      2.704000      0.592000
H          24.520000      3.638000     -0.614000
C          23.269000      1.780000     -1.269000
H          22.421000      1.993000     -1.931000
H          24.072000      1.608000     -1.996000
C          23.006000      0.521000     -0.397000
H          23.180000     -0.356000     -1.031000
H          23.846000      0.377000      0.294000
C          21.706000      0.487000      0.398000
C          21.834000      0.914000      1.828000
C          22.570000      0.111000      2.666000
H          22.946000     -0.805000      2.220000
C          22.995000      0.647000      3.874000
H          23.622000      0.093000      4.567000
C          22.425000      1.859000      4.337000
H          22.726000      2.159000      5.337000
C          21.607000      2.659000      3.561000
H          21.255000      3.627000      3.904000
C          21.328000      2.159000      2.297000
H          20.846000      2.867000      1.629000
C          17.519000     -2.690000      2.072000
C          16.473000     -0.501000      1.913000
C          14.083000     -1.382000     -1.888000
C          19.866000     -3.938000     -2.329000
C          16.371000      0.242000     -4.049000
C          17.608000     -1.285000      2.257000
C          18.510000     -2.715000     -4.398000
C          14.439000     -2.749000      0.072000
C          18.349000      1.746000     -0.911000
C          20.371000     -2.755000     -2.841000
C          20.392000      0.604000     -0.331000
C          19.064000      1.423000     -2.098000
C          19.775000     -0.716000     -3.709000
C          17.397000     -1.916000     -4.736000
C          18.360000      0.591000      1.250000
C          15.153000     -1.896000     -3.829000
C          20.750000     -0.710000      0.249000
C          20.959000     -1.879000     -0.647000
C          15.213000     -0.488000     -3.674000
C          16.607000     -4.932000     -1.649000
C          14.806000     -3.678000     -2.177000
C          14.846000     -3.772000     -0.780000
C          15.183000     -2.450000      1.250000
C          20.313000     -2.948000     -0.099000
C          19.091000      1.176000      0.156000
C          15.288000     -1.078000      1.444000
C          19.698000     -2.120000     -3.918000
C          16.951000      0.672000      1.310000
C          18.297000      1.171000     -3.281000
C          18.739000     -4.775000     -0.496000
C          14.093000     -1.519000     -0.497000
C          20.213000      0.674000     -1.719000
C          16.678000     -4.322000      0.748000
C          18.616000      0.014000     -4.048000
C          16.938000      1.798000     -0.904000
C          16.619000     -3.779000     -3.786000
C          18.058000     -3.957000     -3.842000
C          16.234000      1.515000     -2.049000
C          19.871000     -3.984000     -0.926000
C          20.867000     -1.718000     -2.051000
C          17.997000     -5.071000     -1.677000
C          19.843000     -1.299000      1.312000
C          15.089000      0.704000     -0.270000
C          20.522000     -0.468000     -2.537000
C          16.903000      1.239000     -3.256000
C          18.058000     -4.436000      0.709000
C          14.586000     -0.190000     -2.446000
C          16.317000     -3.199000      1.537000
C          14.425000     -2.468000     -2.754000
C          16.213000      1.282000      0.218000
C          15.086000      0.838000     -1.635000
C          18.770000     -0.609000      1.823000
C          19.736000     -2.653000      1.110000
C          15.914000     -4.364000     -2.741000
C          14.620000     -0.508000      0.361000
C          17.477000     -0.530000     -4.563000
C          18.710000     -4.593000     -2.789000
C          16.226000     -2.609000     -4.393000
C          18.564000     -3.334000      1.463000
C          15.932000     -4.604000     -0.426000
O          17.371000     -1.124000    -10.240000
C          16.492000      0.026000    -10.143000
H          17.109000      0.877000     -9.827000
H          15.702000     -0.042000     -9.386000
H          16.159000      0.380000    -11.127000
O          18.942000     -0.096000    -11.437000
C          18.527000     -1.029000    -10.827000
C          19.237000     -2.340000    -10.677000
H          19.526000     -2.601000    -11.703000
H          18.501000     -3.116000    -10.431000
C          20.268000     -2.166000     -9.537000
H          19.795000     -1.644000     -8.696000
H          20.654000     -3.139000     -9.210000
C          21.490000     -1.317000     -9.953000
H          22.194000     -1.890000    -10.570000
H          21.151000     -0.401000    -10.451000
C          22.253000     -0.805000     -8.675000
C          23.056000     -1.935000     -8.049000
C          22.370000     -2.727000     -7.106000
H          21.365000     -2.407000     -6.846000
C          22.961000     -3.986000     -6.734000
H          22.463000     -4.767000     -6.167000
C          24.283000     -4.259000     -7.139000
H          24.790000     -5.188000     -6.895000
C          24.989000     -3.326000     -7.930000
H          26.042000     -3.410000     -8.182000
C          24.385000     -2.217000     -8.455000
H          24.920000     -1.598000     -9.169000
C          22.444000      2.570000     -4.342000
C          24.807000      2.497000     -5.086000
C          24.619000      6.737000     -6.836000
C          19.281000      3.699000     -8.067000
C          24.181000      5.790000    -10.181000
C          23.528000      1.901000     -4.931000
C          20.483000      5.518000     -9.909000
C          23.726000      5.845000     -4.775000
C          24.846000      1.909000     -9.108000
C          19.802000      3.250000     -9.252000
C          22.935000      0.571000     -8.787000
C          23.994000      2.288000    -10.144000
C          21.563000      3.480000    -10.644000
C          21.721000      6.188000    -10.097000
C          24.410000      1.156000     -6.841000
C          23.238000      7.308000     -8.508000
C          21.759000      0.410000     -7.880000
C          20.489000      1.201000     -8.174000
C          24.368000      6.659000     -9.064000
C          20.368000      6.208000     -5.919000
C          22.281000      7.263000     -6.319000
C          22.475000      6.525000     -5.140000
C          23.752000      4.612000     -4.234000
C          20.012000      1.660000     -6.929000
C          24.289000      0.993000     -8.194000
C          24.859000      3.889000     -4.756000
C          20.496000      4.110000    -10.105000
C          25.338000      2.054000     -6.293000
C          24.008000      3.563000    -10.712000
C          19.572000      3.876000     -5.829000
C          24.791000      5.962000     -5.673000
C          22.782000      1.524000     -9.942000
C          21.330000      4.562000     -4.318000
C          22.741000      4.191000    -10.908000
C          25.727000      2.854000     -8.624000
C          20.785000      6.953000     -8.241000
C          19.866000      5.990000     -8.742000
C          25.734000      4.182000     -9.150000
C          19.382000      2.943000     -6.869000
C          20.478000      2.053000     -9.261000
C          19.600000      5.145000     -6.365000
C          22.016000      0.815000     -6.456000
C          26.001000      4.265000     -6.932000
C          21.596000      2.187000    -10.122000
C          24.892000      4.589000    -10.250000
C          20.448000      3.602000     -4.725000
C          25.211000      6.283000     -8.013000
C          22.525000      3.951000     -3.939000
C          23.405000      7.313000     -7.143000
C          25.887000      2.937000     -7.215000
C          25.919000      5.057000     -8.089000
C          23.321000      1.042000     -6.000000
C          20.935000      1.467000     -5.902000
C          21.005000      7.041000     -6.850000
C          25.485000      4.782000     -5.708000
C          22.862000      5.586000    -10.717000
C          19.334000      5.051000     -7.768000
C          21.936000      7.066000     -9.032000
C          21.159000      2.430000     -4.840000
C          21.284000      5.896000     -4.875000
$end

--------------------------------------------------------------

             Standard Nuclear Orientation (Angstroms)
    I     Atom           X                Y                Z
 ----------------------------------------------------------------
    1      O       1.0394143365     4.4698072293     0.6782316083
    2      C       0.9146650404     4.4524452344     2.1430384810
    3      H       1.6099249709     3.7257255488     2.5812463399
    4      H      -0.1485863042     4.2630082394     2.3374792256
    5      H       1.2350211403     5.4262345628     2.5341590676
    6      O      -0.4931088423     6.1684078322     0.5384793333
    7      C       0.2513221220     5.3728905212    -0.0168167565
    8      C       0.3670212854     5.1806055603    -1.5815998716
    9      H       1.3041666499     5.6622952253    -1.8867729905
   10      H      -0.4661409015     5.8099158176    -1.9173071406
   11      C       0.5381306952     3.7061624308    -2.0261659832
   12      H       0.3413757310     3.0458290053    -1.1729577723
   13      H      -0.2898393285     3.4448374275    -2.6963128942
   14      C       1.9174918028     3.4013013664    -2.6735118461
   15      H       1.7948298128     2.5063948018    -3.2943639031
   16      H       2.1058209825     4.1204315174    -3.4804820723
   17      C       3.1278819766     3.3756377435    -1.7475107631
   18      C       3.9164143283     4.6486138336    -1.7106108406
   19      C       4.5825177075     5.0152094955    -2.8554527113
   20      H       4.5233937377     4.3051237168    -3.6749833959
   21      C       5.0154463382     6.3297229480    -2.9641365830
   22      H       5.5041740987     6.7085764791    -3.8573942044
   23      C       5.0336323673     7.1543998892    -1.8118387869
   24      H       5.4856663147     8.1326636878    -1.9506417076
   25      C       4.4530469793     6.7935797151    -0.6101610392
   26      H       4.3996004409     7.4768983377     0.2317392682
   27      C       3.8931030665     5.5241177341    -0.5885718460
   28      H       3.2802253215     5.3170888239     0.2839715054
   29      C       7.8642523262     0.8016430343    -0.5779291506
   30      C       7.1698333226     1.6190221171     1.6039946983
   31      C       5.9069623122    -2.4525852109     3.2662319190
   32      C       4.1260072022    -1.9449638097    -2.7952221482
   33      C       2.4529511972    -1.9484464761     2.6679908693
   34      C       7.2756502486     1.8316851563     0.2022835262
   35      C       2.6358016989    -3.1300991795    -0.7977317945
   36      C       7.8534646024    -1.8417830280     1.9719852163
   37      C       3.1153282646     1.8957237126     1.7706859149
   38      C       2.9365418018    -1.3467170883    -2.4158398587
   39      C       3.1458542528     2.4189457765    -0.5829750283
   40      C       2.0621977809     1.1971570377     1.1168940633
   41      C       1.5814930596    -0.9105681374    -0.6159015267
   42      C       2.5168487569    -3.3203952358     0.5954844875
   43      C       5.2681267570     2.6298544447     0.8593255477
   44      C       4.2242591248    -3.6270130322     2.2834774858
   45      C       4.0465028295     2.1409133373    -1.7243295325
   46      C       3.8561085690     0.9045588495    -2.5294603331
   47      C       3.6255771433    -2.6271253258     3.0908766805
   48      C       6.6329224544    -3.4494982047    -0.9181848091
   49      C       6.4733515934    -3.7688482471     1.3105937108
   50      C       7.5321084927    -2.8767103196     1.0980643093
   51      C       8.2306805238    -0.5624880937     1.4702545916
   52      C       5.0824942183     0.3428016964    -2.7314210720
   53      C       3.8343677939     2.5620937833     0.7445835398
   54      C       7.6573155154     0.4597408528     2.2168103819
   55      C       2.1462838702    -1.9510861050    -1.4027685418
   56      C       5.9306320004     2.1391165746     2.0063674586
   57      C       1.6691533077    -0.0658714156     1.6660362746
   58      C       6.4129649634    -1.7024869712    -2.5912217042
   59      C       6.9962140659    -1.6034446700     3.0511948089
   60      C       2.1702967721     1.4606533008    -0.2772821549
   61      C       8.0731378691    -1.4403557938    -0.8092062247
   62      C       1.5168468633    -1.1632104360     0.7708553872
   63      C       3.7537381279     1.3507824410     2.9060915063
   64      C       4.4880865856    -4.1593402760    -0.0281705792
   65      C       3.8617348189    -3.7136004534    -1.2588372583
   66      C       3.3744380930     0.1199437928     3.3834778337
   67      C       5.1821730980    -1.0335354713    -2.9513054095
   68      C       2.7838488516     0.0277725047    -2.2343234089
   69      C       6.0311402706    -2.9811056228    -2.0889416551
   70      C       5.5414577181     2.1129046235    -1.4716154786
   71      C       5.6172659956     0.3349958014     3.6223556957
   72      C       1.9776949015     0.3343846246    -1.1508909852
   73      C       2.3051361527    -0.5818669599     2.7964164845
   74      C       7.4557341630    -0.9679648354    -1.9557560257
   75      C       4.6800798703    -1.8803411167     3.6567868711
   76      C       8.2778383399    -0.3666746057     0.0959332251
   77      C       5.6362605003    -3.5626691109     2.4055634207
   78      C       5.1717987053     1.4824440964     3.0562061541
   79      C       4.5454080192    -0.4957355578     3.8277720710
   80      C       6.0838628312     2.4391491706    -0.2518158276
   81      C       6.1010891985     1.0956451856    -2.2048036141
   82      C       5.8735242905    -4.1136130636     0.0705532162
   83      C       6.8919225943    -0.1868115143     3.1864271686
   84      C       1.9328307538    -2.3138463906     1.3720843809
   85      C       4.6445565125    -3.1345523914    -2.2539767149
   86      C       3.6539055317    -4.0029223693     1.0541756722
   87      C       7.2401583806     0.4268181230    -1.7388146027
   88      C       7.6915370291    -2.7072787677    -0.2957834195
   89      O      -1.9211150807    -6.5200440385     1.5898086379
   90      C      -1.9988333050    -6.1058106207     2.9779442772
   91      H      -2.4675391786    -5.1134071881     2.9919525236
   92      H      -1.0379893798    -5.9676291049     3.4873143000
   93      H      -2.7423587824    -6.6817548375     3.5435582124
   94      O      -4.0385536260    -6.0360797511     1.1000468844
   95      C      -2.9403725412    -6.3769603110     0.7957234561
   96      C      -2.5230247560    -6.7954280368    -0.5812393570
   97      H      -3.2886031676    -7.5236520412    -0.8777144743
   98      H      -1.6202377488    -7.4148045645    -0.5055007503
   99      C      -2.2469947201    -5.5005672193    -1.3812267835
  100      H      -1.6591671268    -4.8103209050    -0.7635596028
  101      H      -1.7121886819    -5.7250975210    -2.3119376114
  102      C      -3.5376758737    -4.7492456265    -1.7772053487
  103      H      -4.0430750575    -5.2260769239    -2.6268155999
  104      H      -4.1929645771    -4.6549234104    -0.9033168920
  105      C      -3.1991254887    -3.2634261813    -2.1713134725
  106      C      -2.5617331368    -3.2133256098    -3.5514605380
  107      C      -1.1597619701    -3.3560770617    -3.5862149720
  108      H      -0.6544118961    -3.3986014992    -2.6255704098
  109      C      -0.5482310243    -3.6430288082    -4.8576057843
  110      H       0.4829678020    -3.9527904589    -4.9994884832
  111      C      -1.3314849620    -3.5376266961    -6.0244998086
  112      H      -0.9358585435    -3.7405102851    -7.0154306771
  113      C      -2.6991505033    -3.1977460600    -5.9318816657
  114      H      -3.3358350541    -2.9840002885    -6.7852951223
  115      C      -3.3446131395    -3.1112764955    -4.7292915444
  116      H      -4.4228094181    -2.9847973161    -4.7032569150
  117      C      -1.7306559915     1.8008284627    -0.6224696341
  118      C      -3.3474404198     2.2326658625    -2.4506267861
  119      C      -6.6152960453     3.6098683385     0.4648280585
  120      C      -3.5547103830    -1.2945442655     2.8770057909
  121      C      -8.4203352369     0.6071048365     0.5188916135
  122      C      -2.3460168390     1.4399790369    -1.8310459532
  123      C      -6.3611692942    -0.9042642201     3.2205154206
  124      C      -4.2424096012     4.0671950616     0.4317192691
  125      C      -6.0497630710    -0.8037385098    -2.4887027172
  126      C      -4.4545070948    -2.1497601398     2.2971448714
  127      C      -4.2697162419    -2.2053494186    -1.8467321988
  128      C      -6.6016273184    -1.6129706152    -1.4970221981
  129      C      -6.4163158361    -2.2117537941     1.1839745119
  130      C      -7.4038368956    -0.1047369647     2.6815456247
  131      C      -3.8056760859     0.0657672941    -2.8118547872
  132      C      -7.4833796213     2.2762194093     2.0448905379
  133      C      -2.9726881313    -2.1836280985    -1.1059270527
  134      C      -2.9819789205    -2.4142010721     0.4013110788
  135      C      -8.1055713495     1.9687762512     0.8097414951
  136      C      -3.6966419768     2.1425489362     3.3837599179
  137      C      -5.3982532564     3.3170026755     2.5727288041
  138      C      -4.2589879421     3.7282884701     1.8619267649
  139      C      -3.2550263507     3.6763351102    -0.3965010005
  140      C      -2.0632740519    -1.4945452568     0.9476164383
  141      C      -4.6690759001    -0.9894382980    -2.6982725737
  142      C      -3.8053653813     3.3363303899    -1.6622757599
  143      C      -5.8268364823    -1.9014578960     2.3596192487
  144      C      -4.2710710032     1.3705813223    -3.0326712784
  145      C      -7.6480565282    -1.1976678573    -0.6718225082
  146      C      -2.1238932809     0.4310058057     2.5609466633
  147      C      -5.4595743056     3.9784848474    -0.2501594447
  148      C      -5.5150141830    -2.4506037643    -1.0375805789
  149      C      -2.1623303635     2.5905546616     1.4750588562
  150      C      -7.5070571346    -1.4623906677     0.7239317698
  151      C      -6.5633567224     0.4680071521    -2.6381233739
  152      C      -5.9685858757     1.2234918693     3.7216993030
  153      C      -5.4410523352    -0.0864281282     3.8912544971
  154      C      -7.6012921865     0.9413050357    -1.7784792117
  155      C      -2.3492494972    -0.9200470331     2.2261933174
  156      C      -4.1941857581    -2.6179666283     1.0310953124
  157      C      -3.1503049357     0.8697578585     3.3686698530
  158      C      -2.2380884458    -0.8750889887    -1.1829900152
  159      C      -6.1283024739     2.5854049325    -2.1319460925
  160      C      -5.4170345652    -2.6495673686     0.3149646065
  161      C      -8.2187127138     0.1107469888    -0.7717129910
  162      C      -1.5841063498     1.3605827346     1.6092193903
  163      C      -7.5398889373     2.7861810911    -0.1743716774
  164      C      -2.1428526741     2.9584389876     0.1299682487
  165      C      -6.5557026949     3.2606136197     1.7968531235
  166      C      -5.6378742881     1.5272081320    -2.8364804961
  167      C      -7.3298705118     2.2684323204    -1.4774236608
  168      C      -2.6208643924     0.1083365363    -2.1043188444
  169      C      -1.6417029003    -0.5469212424     0.0158474264
  170      C      -5.0868327794     2.2984958714     3.4810691459
  171      C      -5.2351273172     3.5108434617    -1.5175173594
  172      C      -8.1012972058    -0.4213329270     1.4724132447
  173      C      -4.0165311850    -0.2359490365     3.6426504133
  174      C      -7.1449226949     1.2392912205     2.9606256743
  175      C      -1.4305665013     0.8514267238     0.3405525027
  176      C      -3.2013427436     3.0249905499     2.3826048511
 ----------------------------------------------------------------

    9   -5804.2677501029      8.37E-06 Convergence criterion met
 Total energy in the final basis set = -5804.2677501029

                    Orbital Energies (a.u.)
 --------------------------------------------------------------

 Alpha MOs
 -- Occupied --
-19.200 -19.191 -19.136 -19.132 -10.317 -10.308 -10.250 -10.241
-10.239 -10.237 -10.236 -10.235 -10.234 -10.231 -10.231 -10.228
-10.228 -10.226 -10.225 -10.225 -10.224 -10.224 -10.222 -10.222
-10.222 -10.222 -10.222 -10.222 -10.221 -10.221 -10.221 -10.221
-10.221 -10.221 -10.220 -10.220 -10.220 -10.220 -10.220 -10.220
-10.219 -10.219 -10.219 -10.219 -10.219 -10.219 -10.218 -10.218
-10.218 -10.218 -10.218 -10.218 -10.218 -10.218 -10.218 -10.217
-10.217 -10.217 -10.217 -10.217 -10.217 -10.217 -10.217 -10.217
-10.216 -10.216 -10.216 -10.216 -10.216 -10.216 -10.216 -10.216
-10.216 -10.215 -10.215 -10.215 -10.215 -10.215 -10.215 -10.215
-10.215 -10.215 -10.215 -10.214 -10.214 -10.214 -10.214 -10.214
-10.214 -10.214 -10.214 -10.214 -10.214 -10.213 -10.213 -10.213
-10.213 -10.213 -10.213 -10.212 -10.212 -10.212 -10.212 -10.212
-10.212 -10.212 -10.211 -10.211 -10.211 -10.211 -10.211 -10.211
-10.211 -10.211 -10.211 -10.210 -10.210 -10.210 -10.210 -10.209
-10.209 -10.209 -10.209 -10.209 -10.209 -10.208 -10.208 -10.208
-10.206 -10.206 -10.206 -10.205 -10.205 -10.203 -10.202 -10.201
-10.201 -10.199 -10.199 -10.198 -10.196 -10.196 -10.195 -10.195
-10.195 -10.195 -10.194 -10.194  -1.119  -1.082  -1.026  -1.003
 -0.985  -0.982  -0.969  -0.965  -0.963  -0.963  -0.963  -0.960
 -0.937  -0.930  -0.928  -0.928  -0.926  -0.925  -0.923  -0.922
 -0.922  -0.921  -0.898  -0.897  -0.892  -0.889  -0.888  -0.885
 -0.878  -0.871  -0.858  -0.850  -0.844  -0.840  -0.840  -0.839
 -0.838  -0.837  -0.822  -0.818  -0.806  -0.802  -0.799  -0.799
 -0.798  -0.796  -0.795  -0.794  -0.792  -0.788  -0.785  -0.782
 -0.773  -0.772  -0.771  -0.768  -0.768  -0.766  -0.764  -0.763
 -0.752  -0.750  -0.746  -0.738  -0.732  -0.732  -0.717  -0.716
 -0.716  -0.715  -0.714  -0.713  -0.712  -0.711  -0.710  -0.709
 -0.708  -0.707  -0.707  -0.704  -0.702  -0.700  -0.675  -0.670
 -0.661  -0.660  -0.657  -0.656  -0.650  -0.646  -0.632  -0.631
 -0.629  -0.627  -0.627  -0.625  -0.624  -0.621  -0.616  -0.615
 -0.615  -0.614  -0.614  -0.611  -0.611  -0.610  -0.609  -0.609
 -0.608  -0.605  -0.604  -0.603  -0.575  -0.567  -0.566  -0.562
 -0.561  -0.560  -0.558  -0.558  -0.556  -0.556  -0.556  -0.554
 -0.537  -0.535  -0.534  -0.531  -0.530  -0.526  -0.526  -0.526
 -0.525  -0.521  -0.520  -0.519  -0.519  -0.516  -0.515  -0.514
 -0.511  -0.508  -0.503  -0.497  -0.491  -0.489  -0.487  -0.486
 -0.485  -0.484  -0.483  -0.482  -0.481  -0.479  -0.477  -0.475
 -0.474  -0.473  -0.471  -0.469  -0.469  -0.468  -0.466  -0.466
 -0.466  -0.465  -0.463  -0.463  -0.462  -0.460  -0.459  -0.456
 -0.456  -0.455  -0.453  -0.452  -0.447  -0.447  -0.443  -0.443
 -0.442  -0.442  -0.441  -0.440  -0.439  -0.436  -0.435  -0.433
 -0.432  -0.429  -0.429  -0.428  -0.427  -0.426  -0.426  -0.424
 -0.424  -0.423  -0.421  -0.421  -0.421  -0.421  -0.419  -0.419
 -0.418  -0.417  -0.416  -0.415  -0.415  -0.414  -0.414  -0.413
 -0.412  -0.411  -0.409  -0.407  -0.402  -0.401  -0.398  -0.394
 -0.394  -0.394  -0.391  -0.389  -0.389  -0.387  -0.385  -0.384
 -0.381  -0.376  -0.375  -0.374  -0.373  -0.370  -0.367  -0.367
 -0.366  -0.364  -0.363  -0.362  -0.362  -0.362  -0.359  -0.359
 -0.359  -0.357  -0.357  -0.355  -0.355  -0.353  -0.352  -0.351
 -0.351  -0.348  -0.348  -0.347  -0.346  -0.346  -0.343  -0.343
 -0.342  -0.342  -0.341  -0.341  -0.338  -0.337  -0.337  -0.334
 -0.333  -0.333  -0.331  -0.329  -0.328  -0.326  -0.325  -0.319
 -0.311  -0.307  -0.303  -0.297  -0.290  -0.285  -0.273  -0.271
 -0.270  -0.270  -0.269  -0.268  -0.266  -0.265  -0.265  -0.264
 -0.263  -0.262  -0.261  -0.261  -0.258  -0.257  -0.255  -0.253
 -0.249  -0.244  -0.242  -0.241  -0.226  -0.219  -0.215  -0.211
 -0.210  -0.209  -0.208  -0.206  -0.200  -0.200

          Ground-State Mulliken Net Atomic Charges

     Atom                 Charge (a.u.)
  ----------------------------------------
      1 O                    -0.483749
      2 C                    -0.085646
      3 H                     0.123045
      4 H                     0.134519
      5 H                     0.124336
      6 O                    -0.472614
      7 C                     0.593554
      8 C                    -0.262920
      9 H                     0.143159
     10 H                     0.137387
     11 C                    -0.188782
     12 H                     0.141783
     13 H                     0.106394
     14 C                    -0.228880
     15 H                     0.112435
     16 H                     0.111997
     17 C                     0.045676
     18 C                     0.081519
     19 C                    -0.102210
     20 H                     0.089111
     21 C                    -0.094847
     22 H                     0.090281
     23 C                    -0.088111
     24 H                     0.083252
     25 C                    -0.076163
     26 H                     0.099334
     27 C                    -0.122885
     28 H                     0.102418
     29 C                    -0.014654
     30 C                     0.016084
     31 C                     0.002265
     32 C                     0.008003
     33 C                    -0.023906
     34 C                    -0.038375
     35 C                     0.007571
     36 C                    -0.011360
     37 C                    -0.028688
     38 C                     0.003533
     39 C                    -0.046570
     40 C                     0.008565
     41 C                    -0.011992
     42 C                    -0.011615
     43 C                     0.000799
     44 C                     0.003165
     45 C                    -0.103035
     46 C                     0.001482
     47 C                     0.004706
     48 C                     0.001301
     49 C                    -0.014831
     50 C                     0.033328
     51 C                    -0.010839
     52 C                     0.026307
     53 C                     0.024153
     54 C                     0.014378
     55 C                    -0.044254
     56 C                    -0.008975
     57 C                    -0.019711
     58 C                    -0.034086
     59 C                    -0.002827
     60 C                     0.038575
     61 C                    -0.007905
     62 C                     0.018153
     63 C                    -0.018558
     64 C                     0.010591
     65 C                    -0.007982
     66 C                     0.017808
     67 C                     0.001102
     68 C                     0.002835
     69 C                     0.004014
     70 C                     0.055431
     71 C                     0.003816
     72 C                     0.016698
     73 C                     0.009558
     74 C                    -0.000883
     75 C                    -0.013074
     76 C                     0.021924
     77 C                    -0.006437
     78 C                    -0.018807
     79 C                     0.010754
     80 C                     0.017245
     81 C                     0.016232
     82 C                    -0.003635
     83 C                    -0.006009
     84 C                     0.002358
     85 C                    -0.004570
     86 C                    -0.000516
     87 C                    -0.001289
     88 C                    -0.013899
     89 O                    -0.430542
     90 C                    -0.106771
     91 H                     0.129489
     92 H                     0.133374
     93 H                     0.135007
     94 O                    -0.472242
     95 C                     0.586477
     96 C                    -0.246063
     97 H                     0.124778
     98 H                     0.119324
     99 C                    -0.204052
    100 H                     0.114662
    101 H                     0.117760
    102 C                    -0.169120
    103 H                     0.111654
    104 H                     0.137969
    105 C                    -0.021459
    106 C                     0.081186
    107 C                    -0.108467
    108 H                     0.096623
    109 C                    -0.105668
    110 H                     0.095436
    111 C                    -0.082856
    112 H                     0.090816
    113 C                    -0.090978
    114 H                     0.086756
    115 C                    -0.088985
    116 H                     0.094767
    117 C                    -0.021228
    118 C                    -0.026244
    119 C                     0.018656
    120 C                    -0.004385
    121 C                     0.011927
    122 C                    -0.007210
    123 C                    -0.003566
    124 C                     0.027506
    125 C                    -0.005416
    126 C                    -0.005873
    127 C                    -0.112816
    128 C                     0.022032
    129 C                     0.026863
    130 C                    -0.006105
    131 C                     0.016056
    132 C                    -0.010594
    133 C                    -0.082276
    134 C                    -0.001650
    135 C                    -0.017616
    136 C                    -0.026899
    137 C                    -0.002972
    138 C                     0.000361
    139 C                     0.020632
    140 C                    -0.036581
    141 C                     0.032520
    142 C                    -0.017384
    143 C                    -0.001167
    144 C                    -0.009125
    145 C                    -0.010183
    146 C                     0.000089
    147 C                    -0.015885
    148 C                     0.012276
    149 C                     0.019212
    150 C                    -0.006383
    151 C                    -0.024634
    152 C                    -0.007077
    153 C                    -0.029319
    154 C                     0.001668
    155 C                    -0.001405
    156 C                     0.055592
    157 C                     0.022587
    158 C                     0.036258
    159 C                    -0.001193
    160 C                     0.012223
    161 C                    -0.019308
    162 C                    -0.027234
    163 C                     0.002829
    164 C                    -0.034935
    165 C                     0.011944
    166 C                     0.028984
    167 C                    -0.005515
    168 C                     0.013347
    169 C                     0.045570
    170 C                     0.019846
    171 C                    -0.005308
    172 C                    -0.023349
    173 C                    -0.000958
    174 C                     0.026385
    175 C                     0.021102
    176 C                    -0.010397
  ----------------------------------------
  Sum of atomic charges =     0.000000

                    Cartesian Multipole Moments
 -----------------------------------------------------------------
    Charge (ESU x 10^10)
                 0.0000
    Dipole Moment (Debye)
         X       2.4901      Y      -1.4731      Z      -1.9673
       Tot       3.4987
    Quadrupole Moments (Debye-Ang)
        XX    -832.3894     XY      13.2737     YY    -801.3339
        XZ       2.3893     YZ      -4.4128     ZZ    -785.0709

 Total job time:  907.36s(wall), 8717.85s(cpu)
        *  Thank you very much for using Q-Chem.  Have a nice day.  *
