 Q-Chem 4.4, Q-Chem, Inc., Pleasanton, CA (2016)
 Q-Chem 4.4.2 for Intel X86 Linux

User input:
--------------------------------------------------------------
$comment
SP
$end

$rem
MEM_STATIC 5000
MEM_TOTAL 20000
JOBTYPE SP
EXCHANGE B3LYP
BASIS 6-31g(d,p)
$end

$molecule
0 1
O          16.060000     15.307000      0.114000
C          17.360000     15.914000      0.310000
H          17.896000     15.947000     -0.647000
H          17.814000     15.390000      1.160000
H          17.209000     16.983000      0.501000
O          15.137000     17.131000     -1.027000
C          15.141000     15.973000     -0.552000
C          13.911000     15.054000     -0.793000
H          13.221000     15.691000     -1.359000
H          13.348000     15.078000      0.149000
C          14.210000     13.725000     -1.479000
H          13.319000     13.392000     -2.024000
H          15.030000     13.800000     -2.205000
C          14.479000     12.645000     -0.388000
H          14.887000     13.052000      0.545000
H          13.464000     12.308000     -0.142000
C          15.406000     11.553000     -0.952000
C          16.860000     11.933000     -0.699000
C          17.519000     12.717000     -1.640000
H          16.907000     13.056000     -2.471000
C          18.808000     13.182000     -1.313000
H          19.349000     13.834000     -1.992000
C          19.411000     12.908000     -0.117000
H          20.306000     13.452000      0.169000
C          18.758000     12.034000      0.738000
H          19.294000     11.873000      1.668000
C          17.464000     11.628000      0.524000
H          16.834000     11.139000      1.262000
C          17.076000      8.300000     -5.167000
C          17.777000      7.044000     -3.144000
C          14.492000      3.819000     -3.521000
C          12.177000      9.506000     -4.808000
C          12.334000      5.174000     -1.042000
C          17.526000      8.218000     -3.822000
C          10.799000      7.506000     -3.404000
C          15.893000      4.905000     -5.262000
C          15.343000      7.822000     -0.087000
C          11.808000      9.680000     -3.454000
C          15.052000     10.043000     -0.944000
C          14.006000      8.186000      0.013000
C          11.661000      8.653000     -1.445000
C          10.921000      6.305000     -2.721000
C          17.038000      8.525000     -1.612000
C          12.300000      4.452000     -3.374000
C          15.116000     10.816000     -2.226000
C          13.929000     10.910000     -3.110000
C          12.788000      4.286000     -2.076000
C          13.201000      6.724000     -6.474000
C          13.427000      4.750000     -5.567000
C          14.722000      5.179000     -5.960000
C          16.833000      5.930000     -5.089000
C          14.286000     10.653000     -4.475000
C          16.045000      8.880000     -0.686000
C          17.329000      5.875000     -3.769000
C          11.163000      8.680000     -2.763000
C          17.413000      7.198000     -1.794000
C          12.985000      7.128000     -0.015000
C          13.793000      9.054000     -6.224000
C          15.735000      4.238000     -4.014000
C          13.801000      9.452000     -0.569000
C          15.551000      7.431000     -6.491000
C          11.803000      7.414000     -0.794000
C          15.694000      6.474000     -0.293000
C          11.430000      6.050000     -4.939000
C          11.080000      7.347000     -4.714000
C          14.765000      5.436000     -0.386000
C          13.370000     10.030000     -5.291000
C          12.759000     10.272000     -2.591000
C          12.836000      8.063000     -6.307000
C          16.157000     10.218000     -3.230000
C          16.468000      4.882000     -1.743000
C          12.648000      9.624000     -1.348000
C          13.364000      5.756000     -0.239000
C          15.195000      8.724000     -6.280000
C          14.189000      3.922000     -2.167000
C          16.707000      7.156000     -5.751000
C          13.304000      4.043000     -4.314000
C          16.755000      6.113000     -1.145000
C          15.150000      4.530000     -1.339000
C          17.121000      9.183000     -2.873000
C          15.638000     10.257000     -4.539000
C          12.459000      5.726000     -5.874000
C          16.689000      4.783000     -3.116000
C          11.450000      6.215000     -1.405000
C          11.797000      8.335000     -5.405000
C          11.321000      5.417000     -3.706000
C          16.155000      9.356000     -5.463000
C          14.550000      6.395000     -6.599000
O          17.371000     -1.124000    -10.240000
C          16.492000      0.026000    -10.143000
H          17.109000      0.877000     -9.827000
H          15.702000     -0.042000     -9.386000
H          16.159000      0.380000    -11.127000
O          18.942000     -0.096000    -11.437000
C          18.527000     -1.029000    -10.827000
C          19.237000     -2.340000    -10.677000
H          19.526000     -2.601000    -11.703000
H          18.501000     -3.116000    -10.431000
C          20.268000     -2.166000     -9.537000
H          19.795000     -1.644000     -8.696000
H          20.654000     -3.139000     -9.210000
C          21.490000     -1.317000     -9.953000
H          22.194000     -1.890000    -10.570000
H          21.151000     -0.401000    -10.451000
C          22.253000     -0.805000     -8.675000
C          23.056000     -1.935000     -8.049000
C          22.370000     -2.727000     -7.106000
H          21.365000     -2.407000     -6.846000
C          22.961000     -3.986000     -6.734000
H          22.463000     -4.767000     -6.167000
C          24.283000     -4.259000     -7.139000
H          24.790000     -5.188000     -6.895000
C          24.989000     -3.326000     -7.930000
H          26.042000     -3.410000     -8.182000
C          24.385000     -2.217000     -8.455000
H          24.920000     -1.598000     -9.169000
C          22.444000      2.570000     -4.342000
C          24.807000      2.497000     -5.086000
C          24.619000      6.737000     -6.836000
C          19.281000      3.699000     -8.067000
C          24.181000      5.790000    -10.181000
C          23.528000      1.901000     -4.931000
C          20.483000      5.518000     -9.909000
C          23.726000      5.845000     -4.775000
C          24.846000      1.909000     -9.108000
C          19.802000      3.250000     -9.252000
C          22.935000      0.571000     -8.787000
C          23.994000      2.288000    -10.144000
C          21.563000      3.480000    -10.644000
C          21.721000      6.188000    -10.097000
C          24.410000      1.156000     -6.841000
C          23.238000      7.308000     -8.508000
C          21.759000      0.410000     -7.880000
C          20.489000      1.201000     -8.174000
C          24.368000      6.659000     -9.064000
C          20.368000      6.208000     -5.919000
C          22.281000      7.263000     -6.319000
C          22.475000      6.525000     -5.140000
C          23.752000      4.612000     -4.234000
C          20.012000      1.660000     -6.929000
C          24.289000      0.993000     -8.194000
C          24.859000      3.889000     -4.756000
C          20.496000      4.110000    -10.105000
C          25.338000      2.054000     -6.293000
C          24.008000      3.563000    -10.712000
C          19.572000      3.876000     -5.829000
C          24.791000      5.962000     -5.673000
C          22.782000      1.524000     -9.942000
C          21.330000      4.562000     -4.318000
C          22.741000      4.191000    -10.908000
C          25.727000      2.854000     -8.624000
C          20.785000      6.953000     -8.241000
C          19.866000      5.990000     -8.742000
C          25.734000      4.182000     -9.150000
C          19.382000      2.943000     -6.869000
C          20.478000      2.053000     -9.261000
C          19.600000      5.145000     -6.365000
C          22.016000      0.815000     -6.456000
C          26.001000      4.265000     -6.932000
C          21.596000      2.187000    -10.122000
C          24.892000      4.589000    -10.250000
C          20.448000      3.602000     -4.725000
C          25.211000      6.283000     -8.013000
C          22.525000      3.951000     -3.939000
C          23.405000      7.313000     -7.143000
C          25.887000      2.937000     -7.215000
C          25.919000      5.057000     -8.089000
C          23.321000      1.042000     -6.000000
C          20.935000      1.467000     -5.902000
C          21.005000      7.041000     -6.850000
C          25.485000      4.782000     -5.708000
C          22.862000      5.586000    -10.717000
C          19.334000      5.051000     -7.768000
C          21.936000      7.066000     -9.032000
C          21.159000      2.430000     -4.840000
C          21.284000      5.896000     -4.875000
$end

--------------------------------------------------------------

             Standard Nuclear Orientation (Angstroms)
    I     Atom           X                Y                Z
 ----------------------------------------------------------------
    1      O      10.1419922385     4.8909771071    -0.1098079063
    2      C       9.8302471322     6.2885182442    -0.3255826932
    3      H       9.0768269691     6.6117858693     0.4038623700
    4      H       9.6161530054     6.3893231388    -1.3966541559
    5      H      10.6958869613     6.8813689641    -0.0074023824
    6      O      11.3376897282     5.2374421343     1.8728810501
    7      C      10.8164082372     4.5486871856     0.9670735497
    8      C      10.8647394889     2.9989618750     1.0745796036
    9      H      11.4278881562     2.8227143703     1.9987145480
   10      H      11.6640714342     2.6901774281     0.3885551093
   11      C       9.5107959313     2.2973240873     1.0466644172
   12      H       9.5853663165     1.3479164075     1.5896739154
   13      H       8.7193681385     2.8882755881     1.5257462189
   14      C       9.1663497609     1.9270310248    -0.4275410920
   15      H       9.6150387116     2.5999191370    -1.1681501752
   16      H       9.6841862744     0.9674181271    -0.5512279213
   17      C       7.6386072383     1.8673874189    -0.6073588471
   18      C       7.1144254794     3.2422097553    -1.0043752538
   19      C       6.7742498772     4.1428559535    -0.0006148315
   20      H       6.9750860854     3.8054432700     1.0122244936
   21      C       6.4396399242     5.4551711594    -0.3886096505
   22      H       6.2095125710     6.2101500649     0.3569601005
   23      C       6.4567538921     5.8673876586    -1.6920227354
   24      H       6.3935589178     6.9270362008    -1.9198568026
   25      C       6.6954098117     4.9040951242    -2.6597111384
   26      H       6.7011519756     5.3089827067    -3.6667613223
   27      C       7.1237272097     3.6382264977    -2.3447685608
   28      H       7.5400274218     2.9268549807    -3.0528008328
   29      C       2.5659140754     0.5846143068     1.3315612694
   30      C       2.2819066890     0.5308907180    -1.1337824349
   31      C       2.0425724749    -4.0737684840    -1.4054656474
   32      C       6.4905794795    -2.3184290395     2.6555170073
   33      C       5.3850759819    -4.5698894396    -2.5099855900
   34      C       2.8688850232     1.0203421092     0.0137604927
   35      C       6.7072159216    -4.4949201822     0.8987999107
   36      C       1.0691451764    -2.5036496605     0.2559928006
   37      C       5.6938131845    -0.4820278692    -2.9248097943
   38      C       7.4605923115    -2.3386711526     1.6267223911
   39      C       6.8915206211     0.6299256541    -1.1695242738
   40      C       6.7881697245    -1.2516918854    -2.5505557822
   41      C       7.8332463592    -2.8902200825    -0.5341435786
   42      C       6.1838888405    -5.0990356888    -0.2347552141
   43      C       4.3972347720     1.0887763943    -1.6821041227
   44      C       3.8520130191    -5.3142135006    -0.7617397136
   45      C       6.7471769970     1.0348250095     0.2658747753
   46      C       7.1167016972     0.0980309968     1.3545112958
   47      C       4.0560654165    -4.9087388168    -2.0825186125
   48      C       3.3061594588    -3.5102690743     2.7069219011
   49      C       2.3295557565    -4.5074432915     1.0269547022
   50      C       1.6312040278    -3.2923778870     1.2537496007
   51      C       1.2335101996    -1.1132981977     0.3197183771
   52      C       6.0957247968     0.0546620379     2.3607161965
   53      C       5.6629147755     0.6645855898    -2.1153087974
   54      C       1.5140348537    -0.6280627702    -0.9753852861
   55      C       7.5369544968    -3.3947366505     0.7478592158
   56      C       3.2341994547     0.5011603890    -2.1686575945
   57      C       6.7199081078    -2.7088446884    -2.7366607532
   58      C       4.5538764583    -1.5374205007     3.3337670131
   59      C       1.3226891248    -2.9155050037    -1.0832038401
   60      C       7.4509483329    -0.6577652642    -1.4590061110
   61      C       2.3190057905    -1.2751623855     2.4778722889
   62      C       7.2584320445    -3.5070634407    -1.6602780178
   63      C       4.5207234919    -1.1039617969    -3.3936378679
   64      C       4.6722836113    -5.1190160668     1.4852100227
   65      C       5.8210147564    -4.5270006594     1.9156383137
   66      C       4.3787851980    -2.4855742403    -3.5355342277
   67      C       5.8730467525    -1.1295732863     3.0248262669
   68      C       7.6641061360    -1.1426546778     0.9002509771
   69      C       4.4637614125    -2.9089987060     3.2093825075
   70      C       5.2602034304     1.3308479142     0.6539225197
   71      C       2.3514097499    -1.6976196008    -2.9721069665
   72      C       7.8988363235    -1.5071959144    -0.4373907634
   73      C       5.5059718211    -3.3269158963    -3.2062857886
   74      C       3.4622784965    -0.6917979181     2.9202741626
   75      C       2.9269302806    -4.0895354149    -2.4794287173
   76      C       1.7851064265    -0.4938668954     1.4463249917
   77      C       2.5385139749    -4.9178872890    -0.3415697542
   78      C       3.2444150690    -0.6239470060    -3.0435398671
   79      C       3.1182086886    -2.8794812776    -3.1707683989
   80      C       4.1775380223     1.4365296572    -0.3180018515
   81      C       4.9885995761     0.8190891887     1.9379386228
   82      C       3.4002998971    -4.6485871027     1.9310754961
   83      C       1.5106760514    -1.7435722903    -1.8608796277
   84      C       6.4200335502    -4.6116786782    -1.5487247039
   85      C       5.6931061448    -3.4240165281     2.7728310535
   86      C       4.9107151796    -5.4734993439     0.1622017107
   87      C       3.6643785224     0.5317088772     2.2489324453
   88      C       2.2151914873    -2.7117549268     2.3665823038
   89      O      -6.0205772279    -5.7982907976     1.7375409798
   90      C      -4.7035648122    -5.7160150545     2.3402506933
   91      H      -4.3868451808    -4.6668392291     2.2797134119
   92      H      -3.9114222607    -6.2763227242     1.8300169297
   93      H      -4.7347285805    -5.8488410066     3.4292167561
   94      O      -6.8800447414    -4.0769961226     2.8582970796
   95      C      -6.9388415885    -4.9243865382     2.0256588543
   96      C      -8.1403180345    -5.2112862879     1.1774466853
   97      H      -8.9637351202    -5.2717687538     1.9003880206
   98      H      -8.0734509765    -6.2411632192     0.8042573195
   99      C      -8.1234243254    -4.1927548597     0.0133395887
  100      H      -7.1074498132    -4.1244663381    -0.3948594663
  101      H      -8.8283056701    -4.4890536487    -0.7727922816
  102      C      -8.5192389393    -2.7658519773     0.4542703718
  103      H      -9.6037343512    -2.6671589351     0.5912498780
  104      H      -7.9595239209    -2.4891887843     1.3554682279
  105      C      -8.0581243579    -1.7184951374    -0.6264765888
  106      C      -8.9775846411    -1.7665768312    -1.8372060955
  107      C      -8.6251437577    -2.6926267825    -2.8398655149
  108      H      -7.6863207742    -3.2211803660    -2.7010580403
  109      C      -9.6169146850    -3.0121541205    -3.8333637324
  110      H      -9.5479827737    -3.8295961072    -4.5450455363
  111      C     -10.7866617966    -2.2287582852    -3.8983303395
  112      H     -11.5759523485    -2.4140684573    -4.6210381399
  113      C     -10.9898841531    -1.1803701518    -2.9741068841
  114      H     -11.8031496715    -0.4629600730    -3.0314739074
  115      C     -10.1578252005    -0.9837595133    -1.9067062300
  116      H     -10.4218034367    -0.2583509893    -1.1429785533
  117      C      -3.9859089392     1.0674380928    -3.0467312490
  118      C      -5.8205571902     2.7320246093    -2.9702359949
  119      C      -3.8113307385     5.1211899325     0.3958213612
  120      C      -3.0799646697    -1.0142793765     1.4254664611
  121      C      -5.7164763994     3.8151552287     3.0306593758
  122      C      -5.3502565928     1.3958377169    -3.0624527872
  123      C      -3.5102615623     0.8645754742     3.5305265634
  124      C      -2.8734289839     4.0960448131    -1.5816142972
  125      C      -8.1034425230     1.9444592653     0.2996148252
  126      C      -4.2394899341    -1.0368608998     2.1550267643
  127      C      -7.6453232596    -0.3296080129    -0.1052935035
  128      C      -7.8267487613     1.4282486875     1.5644500721
  129      C      -5.8167715963     0.2947779324     3.0664024161
  130      C      -3.9236658794     2.2135747488     3.6923469199
  131      C      -7.2585639100     1.3778145142    -1.9052633698
  132      C      -3.3871754853     4.2574399696     2.4213618626
  133      C      -6.6073213026    -1.2261032234    -0.6972346111
  134      C      -5.4649125807    -1.7137611978     0.1871346626
  135      C      -4.7512991623     4.6371898903     2.3745260692
  136      C      -1.1307663477     1.6564908232     0.3492850441
  137      C      -1.8082248039     3.7416923511     0.7036557935
  138      C      -1.8468798234     3.5437558682    -0.6861815848
  139      C      -3.4252233377     3.3830264822    -2.5820011479
  140      C      -4.2977063965    -1.6448184430    -0.6009716880
  141      C      -7.9225380948     1.0334745649    -0.7596686417
  142      C      -4.8067835347     3.7015174375    -2.6845532488
  143      C      -4.5111496075    -0.0512348700     3.1055988821
  144      C      -6.9926330468     2.7184791309    -2.2211607608
  145      C      -7.2850804335     2.1956373621     2.5969979135
  146      C      -2.0963180353    -0.4352587350    -0.5294832557
  147      C      -3.8677547936     4.8810515225    -0.9905147705
  148      C      -7.4827976485     0.0401359040     1.3447126557
  149      C      -2.0209585449     1.5041996798    -1.9706990635
  150      C      -6.2029552700     1.6162820559     3.3259982974
  151      C      -7.8087533833     3.2726563602     0.0705017786
  152      C      -1.9949362715     2.1975723303     2.6034010894
  153      C      -2.2859533426     0.8271273579     2.8485961991
  154      C      -7.2092358015     4.0733619899     1.0901871045
  155      C      -3.0645869854    -1.2922573434     0.0328312696
  156      C      -5.4217147237    -1.2937177369     1.5021599233
  157      C      -1.5520398175     0.3423951460     0.4692442662
  158      C      -5.8380714143    -0.6154044547    -1.8344028586
  159      C      -6.2804961083     4.5716193258    -0.8813311454
  160      C      -6.4201290088    -0.4535394907     2.0557576381
  161      C      -6.9506720055     3.5757266606     2.4206444854
  162      C      -2.2885945092     0.1740250870    -1.8152013360
  163      C      -5.0135677710     5.1501381817     1.0998789701
  164      C      -2.9626716312     2.0598457674    -2.8363900525
  165      C      -2.8467400376     4.5365190874     1.1879992343
  166      C      -7.1935307255     3.6013266457    -1.1669338459
  167      C      -6.2652141819     4.8916129437     0.4861510473
  168      C      -6.2743786635     0.5702970604    -2.4395787846
  169      C      -4.5028167407    -0.9562706747    -1.7958518986
  170      C      -1.4214940308     2.5730078239     1.3700166453
  171      C      -5.0622358384     4.6459275792    -1.6175656177
  172      C      -5.2943674571     2.6248608990     3.7189154688
  173      C      -2.1069146249    -0.0731045938     1.7212326505
  174      C      -2.9941289204     3.0569500628     3.0791478320
  175      C      -3.5257614721    -0.0518058159    -2.3726493686
  176      C      -1.3998222038     2.2651606540    -0.9090734038
 ----------------------------------------------------------------

    9   -5804.2219870907      9.04E-06 Convergence criterion met
 Total energy in the final basis set = -5804.2219870907

                    Orbital Energies (a.u.)
 --------------------------------------------------------------

 Alpha MOs
 -- Occupied --
-19.209 -19.199 -19.133 -19.131 -10.319 -10.308 -10.251 -10.250
-10.241 -10.239 -10.237 -10.236 -10.236 -10.233 -10.229 -10.228
-10.228 -10.226 -10.225 -10.224 -10.224 -10.224 -10.224 -10.223
-10.222 -10.222 -10.221 -10.221 -10.221 -10.220 -10.220 -10.220
-10.220 -10.220 -10.220 -10.220 -10.220 -10.220 -10.219 -10.219
-10.219 -10.218 -10.218 -10.218 -10.218 -10.218 -10.218 -10.217
-10.217 -10.217 -10.217 -10.216 -10.216 -10.216 -10.216 -10.216
-10.215 -10.215 -10.215 -10.215 -10.215 -10.215 -10.214 -10.214
-10.214 -10.214 -10.214 -10.214 -10.214 -10.214 -10.214 -10.214
-10.213 -10.213 -10.213 -10.213 -10.213 -10.213 -10.213 -10.213
-10.213 -10.213 -10.212 -10.212 -10.212 -10.212 -10.212 -10.212
-10.212 -10.211 -10.211 -10.211 -10.211 -10.211 -10.211 -10.211
-10.210 -10.210 -10.210 -10.210 -10.210 -10.210 -10.209 -10.209
-10.209 -10.209 -10.209 -10.209 -10.209 -10.209 -10.208 -10.208
-10.208 -10.208 -10.208 -10.208 -10.208 -10.208 -10.208 -10.207
-10.207 -10.207 -10.206 -10.206 -10.206 -10.206 -10.206 -10.206
-10.205 -10.205 -10.204 -10.204 -10.204 -10.202 -10.202 -10.201
-10.200 -10.199 -10.199 -10.198 -10.198 -10.198 -10.197 -10.196
-10.196 -10.195 -10.194 -10.194  -1.119  -1.109  -1.026  -1.001
 -0.984  -0.981  -0.968  -0.963  -0.962  -0.961  -0.960  -0.958
 -0.933  -0.930  -0.928  -0.926  -0.926  -0.923  -0.922  -0.920
 -0.919  -0.918  -0.899  -0.896  -0.890  -0.888  -0.884  -0.884
 -0.878  -0.870  -0.861  -0.849  -0.840  -0.839  -0.838  -0.838
 -0.837  -0.835  -0.817  -0.817  -0.806  -0.805  -0.799  -0.797
 -0.795  -0.795  -0.794  -0.792  -0.789  -0.786  -0.785  -0.780
 -0.775  -0.770  -0.769  -0.766  -0.766  -0.762  -0.762  -0.761
 -0.755  -0.750  -0.750  -0.745  -0.732  -0.730  -0.719  -0.716
 -0.714  -0.713  -0.713  -0.711  -0.710  -0.709  -0.709  -0.707
 -0.706  -0.705  -0.705  -0.703  -0.703  -0.702  -0.672  -0.668
 -0.659  -0.656  -0.655  -0.655  -0.645  -0.645  -0.632  -0.631
 -0.629  -0.626  -0.625  -0.623  -0.622  -0.621  -0.620  -0.616
 -0.613  -0.612  -0.610  -0.610  -0.609  -0.608  -0.607  -0.607
 -0.605  -0.603  -0.603  -0.601  -0.577  -0.575  -0.564  -0.561
 -0.560  -0.559  -0.558  -0.558  -0.556  -0.554  -0.552  -0.552
 -0.538  -0.533  -0.532  -0.529  -0.528  -0.526  -0.525  -0.524
 -0.522  -0.520  -0.519  -0.518  -0.517  -0.517  -0.514  -0.513
 -0.511  -0.508  -0.504  -0.501  -0.490  -0.489  -0.488  -0.487
 -0.484  -0.483  -0.483  -0.481  -0.480  -0.478  -0.477  -0.475
 -0.475  -0.473  -0.470  -0.469  -0.468  -0.467  -0.467  -0.465
 -0.464  -0.464  -0.463  -0.462  -0.460  -0.459  -0.458  -0.455
 -0.455  -0.452  -0.451  -0.451  -0.449  -0.446  -0.445  -0.442
 -0.442  -0.440  -0.439  -0.438  -0.437  -0.434  -0.432  -0.431
 -0.431  -0.429  -0.428  -0.427  -0.427  -0.426  -0.425  -0.424
 -0.423  -0.421  -0.420  -0.420  -0.420  -0.419  -0.419  -0.418
 -0.417  -0.416  -0.415  -0.414  -0.413  -0.413  -0.412  -0.412
 -0.412  -0.410  -0.407  -0.407  -0.402  -0.401  -0.397  -0.395
 -0.392  -0.392  -0.389  -0.389  -0.389  -0.388  -0.386  -0.383
 -0.382  -0.375  -0.374  -0.373  -0.372  -0.372  -0.369  -0.367
 -0.366  -0.363  -0.361  -0.361  -0.360  -0.360  -0.359  -0.358
 -0.357  -0.356  -0.355  -0.354  -0.354  -0.353  -0.353  -0.350
 -0.349  -0.348  -0.347  -0.345  -0.345  -0.344  -0.343  -0.342
 -0.342  -0.341  -0.341  -0.339  -0.337  -0.337  -0.335  -0.332
 -0.331  -0.329  -0.329  -0.328  -0.327  -0.324  -0.322  -0.318
 -0.307  -0.307  -0.303  -0.302  -0.285  -0.284  -0.272  -0.271
 -0.268  -0.268  -0.267  -0.267  -0.266  -0.263  -0.262  -0.261
 -0.261  -0.260  -0.259  -0.259  -0.258  -0.256  -0.254  -0.252
 -0.251  -0.244  -0.241  -0.240  -0.221  -0.217  -0.215  -0.209
 -0.209  -0.208  -0.206  -0.204  -0.199  -0.197

          Ground-State Mulliken Net Atomic Charges

     Atom                 Charge (a.u.)
  ----------------------------------------
      1 O                    -0.424391
      2 C                    -0.093591
      3 H                     0.133455
      4 H                     0.133649
      5 H                     0.136655
      6 O                    -0.493244
      7 C                     0.583657
      8 C                    -0.261477
      9 H                     0.126450
     10 H                     0.120769
     11 C                    -0.182867
     12 H                     0.120220
     13 H                     0.107608
     14 C                    -0.178227
     15 H                     0.128239
     16 H                     0.106914
     17 C                    -0.009719
     18 C                     0.095292
     19 C                    -0.088426
     20 H                     0.090574
     21 C                    -0.108054
     22 H                     0.083837
     23 C                    -0.070392
     24 H                     0.093782
     25 C                    -0.106815
     26 H                     0.084195
     27 C                    -0.083576
     28 H                     0.092936
     29 C                    -0.006832
     30 C                    -0.027855
     31 C                     0.002100
     32 C                     0.004790
     33 C                    -0.028092
     34 C                     0.008514
     35 C                     0.015590
     36 C                    -0.028933
     37 C                     0.019730
     38 C                    -0.025733
     39 C                    -0.098504
     40 C                    -0.010816
     41 C                     0.000786
     42 C                    -0.011461
     43 C                     0.008254
     44 C                     0.023888
     45 C                    -0.075802
     46 C                    -0.000158
     47 C                    -0.008691
     48 C                    -0.002178
     49 C                    -0.025421
     50 C                     0.031603
     51 C                     0.014666
     52 C                     0.002642
     53 C                     0.011251
     54 C                     0.022534
     55 C                    -0.005457
     56 C                    -0.003853
     57 C                    -0.028486
     58 C                    -0.009168
     59 C                     0.008854
     60 C                     0.049313
     61 C                    -0.014850
     62 C                    -0.004789
     63 C                     0.005696
     64 C                     0.001419
     65 C                     0.015375
     66 C                     0.005803
     67 C                    -0.010879
     68 C                     0.010608
     69 C                    -0.003594
     70 C                     0.020455
     71 C                    -0.040514
     72 C                    -0.001596
     73 C                    -0.007648
     74 C                     0.011938
     75 C                     0.005445
     76 C                     0.020759
     77 C                    -0.034674
     78 C                     0.013959
     79 C                     0.017004
     80 C                    -0.006623
     81 C                     0.037258
     82 C                     0.013262
     83 C                    -0.001819
     84 C                     0.021500
     85 C                     0.006039
     86 C                    -0.008036
     87 C                    -0.027868
     88 C                    -0.007528
     89 O                    -0.431154
     90 C                    -0.107124
     91 H                     0.130137
     92 H                     0.133052
     93 H                     0.135424
     94 O                    -0.471249
     95 C                     0.586134
     96 C                    -0.246195
     97 H                     0.125006
     98 H                     0.118683
     99 C                    -0.202731
    100 H                     0.112817
    101 H                     0.117069
    102 C                    -0.169271
    103 H                     0.111509
    104 H                     0.138226
    105 C                    -0.023661
    106 C                     0.083529
    107 C                    -0.105991
    108 H                     0.093779
    109 C                    -0.104011
    110 H                     0.093930
    111 C                    -0.083155
    112 H                     0.091038
    113 C                    -0.089656
    114 H                     0.087137
    115 C                    -0.089501
    116 H                     0.095304
    117 C                    -0.002566
    118 C                    -0.022061
    119 C                     0.016945
    120 C                    -0.005053
    121 C                     0.011511
    122 C                    -0.001960
    123 C                    -0.004170
    124 C                     0.019035
    125 C                    -0.005431
    126 C                    -0.006504
    127 C                    -0.111568
    128 C                     0.022284
    129 C                     0.025458
    130 C                    -0.005970
    131 C                     0.014817
    132 C                    -0.011299
    133 C                    -0.082205
    134 C                    -0.000860
    135 C                    -0.017597
    136 C                    -0.025121
    137 C                    -0.004746
    138 C                    -0.003280
    139 C                     0.012961
    140 C                    -0.037773
    141 C                     0.031350
    142 C                    -0.016598
    143 C                    -0.000315
    144 C                    -0.006867
    145 C                    -0.010379
    146 C                     0.003536
    147 C                    -0.017635
    148 C                     0.010769
    149 C                     0.037140
    150 C                    -0.006235
    151 C                    -0.025365
    152 C                    -0.007164
    153 C                    -0.029511
    154 C                     0.001063
    155 C                    -0.002437
    156 C                     0.054161
    157 C                     0.019133
    158 C                     0.040200
    159 C                    -0.001714
    160 C                     0.013893
    161 C                    -0.019064
    162 C                    -0.035512
    163 C                     0.003208
    164 C                    -0.048289
    165 C                     0.011590
    166 C                     0.029124
    167 C                    -0.006849
    168 C                     0.017235
    169 C                     0.031778
    170 C                     0.019611
    171 C                    -0.004971
    172 C                    -0.023057
    173 C                     0.001418
    174 C                     0.026697
    175 C                     0.015987
    176 C                    -0.010484
  ----------------------------------------
  Sum of atomic charges =     0.000000

                    Cartesian Multipole Moments
 -----------------------------------------------------------------
    Charge (ESU x 10^10)
                 0.0000
    Dipole Moment (Debye)
         X      -0.5831      Y      -1.1732      Z      -3.2180
       Tot       3.4745
    Quadrupole Moments (Debye-Ang)
        XX    -791.2174     XY      25.1448     YY    -785.8565
        XZ      -9.5335     YZ     -13.9929     ZZ    -817.4896

 Total job time:  864.07s(wall), 8252.57s(cpu)
        *  Thank you very much for using Q-Chem.  Have a nice day.  *
