 Q-Chem 4.4, Q-Chem, Inc., Pleasanton, CA (2016)
 Q-Chem 4.4.2 for Intel X86 Linux

User input:
--------------------------------------------------------------
$comment
SP
$end

$rem
MEM_STATIC 5000
MEM_TOTAL 20000
JOBTYPE SP
EXCHANGE B3LYP
BASIS 6-31g(d,p)
$end

$molecule
0 1
O           8.848000    -13.846000     -2.390000
C           7.514000    -13.445000     -2.782000
H           7.196000    -12.475000     -2.382000
H           6.855000    -14.276000     -2.500000
H           7.401000    -13.407000     -3.873000
O           8.514000    -13.420000     -0.171000
C           9.209000    -13.825000     -1.062000
C          10.646000    -14.328000     -0.932000
H          10.774000    -15.145000     -1.653000
H          10.794000    -14.811000      0.042000
C          11.855000    -13.304000     -1.168000
H          11.609000    -12.476000     -1.843000
H          12.178000    -12.778000     -0.261000
C          13.132000    -14.080000     -1.572000
H          13.256000    -14.856000     -0.807000
H          12.937000    -14.694000     -2.460000
C          14.357000    -13.176000     -1.874000
C          14.110000    -12.162000     -2.925000
C          13.997000    -10.761000     -2.673000
H          14.128000    -10.390000     -1.661000
C          13.723000     -9.957000     -3.711000
H          13.693000     -8.872000     -3.661000
C          13.535000    -10.473000     -5.000000
H          13.470000     -9.773000     -5.828000
C          13.528000    -11.885000     -5.263000
H          13.452000    -12.334000     -6.249000
C          13.935000    -12.735000     -4.221000
H          14.073000    -13.810000     -4.288000
C          19.711000    -13.401000     -3.307000
C          19.453000    -11.351000     -2.082000
C          21.726000    -12.626000      1.608000
C          17.754000    -17.185000     -0.473000
C          18.778000    -13.222000      3.395000
C          18.945000    -12.238000     -2.997000
C          18.191000    -16.549000      2.254000
C          22.141000    -13.106000     -0.666000
C          16.527000    -11.489000      0.605000
C          16.725000    -16.666000      0.318000
C          15.405000    -12.900000     -0.892000
C          15.958000    -12.450000      1.357000
C          16.209000    -15.157000      1.970000
C          18.837000    -15.625000      3.160000
C          17.232000    -11.406000     -1.736000
C          20.849000    -14.344000      2.959000
C          15.720000    -13.873000     -2.013000
C          16.005000    -15.304000     -1.617000
C          20.126000    -13.172000      3.157000
C          21.273000    -16.433000     -0.472000
C          22.106000    -14.903000      0.906000
C          22.348000    -14.477000     -0.441000
C          21.455000    -12.654000     -1.838000
C          17.077000    -15.795000     -2.328000
C          16.286000    -11.670000     -0.742000
C          20.738000    -11.526000     -1.544000
C          16.929000    -16.369000      1.686000
C          18.449000    -10.827000     -1.364000
C          16.701000    -12.859000      2.535000
C          19.345000    -16.667000     -1.991000
C          21.952000    -12.167000      0.321000
C          15.306000    -13.400000      0.529000
C          21.042000    -14.987000     -2.394000
C          16.805000    -14.227000      2.830000
C          17.766000    -10.822000      0.989000
C          20.461000    -16.530000      1.884000
C          19.200000    -17.115000      1.453000
C          18.383000    -11.157000      2.133000
C          17.935000    -16.706000     -1.778000
C          15.825000    -15.727000     -0.232000
C          20.040000    -17.075000     -0.825000
C          16.867000    -13.540000     -2.910000
C          19.965000    -10.707000      0.566000
C          15.583000    -14.808000      0.782000
C          17.923000    -12.202000      2.889000
C          19.874000    -15.600000     -2.778000
C          20.628000    -12.148000      2.376000
C          20.946000    -13.628000     -2.722000
C          21.827000    -13.975000      1.979000
C          18.688000    -10.504000     -0.022000
C          19.770000    -11.120000      1.880000
C          17.559000    -12.346000     -2.770000
C          17.607000    -14.695000     -3.034000
C          21.477000    -16.128000      0.863000
C          21.030000    -11.269000     -0.218000
C          18.084000    -14.436000      3.393000
C          19.040000    -17.416000      0.108000
C          20.182000    -15.589000      2.848000
C          19.010000    -14.620000     -3.334000
C          21.803000    -15.420000     -1.309000
O          20.674000    -16.338000      7.860000
C          20.011000    -15.159000      8.338000
H          19.339000    -15.363000      9.181000
H          19.326000    -14.725000      7.599000
H          20.727000    -14.352000      8.540000
O          21.846000    -15.054000      6.412000
C          21.575000    -16.162000      6.826000
C          22.105000    -17.540000      6.346000
H          22.222000    -18.150000      7.250000
H          23.148000    -17.522000      6.006000
C          21.239000    -18.182000      5.259000
H          20.184000    -18.237000      5.555000
H          21.329000    -17.503000      4.402000
C          22.010000    -19.550000      4.987000
H          23.025000    -19.331000      4.636000
H          22.021000    -20.118000      5.926000
C          21.295000    -20.396000      3.836000
C          19.876000    -20.684000      4.236000
C          18.903000    -19.697000      3.987000
H          19.222000    -18.833000      3.413000
C          17.611000    -19.774000      4.523000
H          16.885000    -18.991000      4.322000
C          17.250000    -20.959000      5.258000
H          16.240000    -21.001000      5.653000
C          18.140000    -22.017000      5.385000
H          17.854000    -22.926000      5.906000
C          19.494000    -21.849000      4.943000
H          20.258000    -22.540000      5.288000
C          21.835000    -25.098000      1.218000
C          20.551000    -23.740000     -0.275000
C          23.822000    -23.250000     -3.365000
C          26.083000    -22.736000      2.460000
C          24.668000    -20.095000     -2.289000
C          20.785000    -24.168000      1.020000
C          26.918000    -21.163000      0.337000
C          23.139000    -25.255000     -2.166000
C          21.451000    -19.975000      0.090000
C          25.850000    -21.360000      2.456000
C          21.791000    -20.327000      2.426000
C          22.626000    -19.282000      0.460000
C          25.222000    -19.682000      1.189000
C          26.675000    -20.811000     -1.041000
C          20.369000    -21.924000      0.983000
C          25.718000    -22.174000     -2.839000
C          22.162000    -21.506000      3.272000
C          23.615000    -21.830000      3.505000
C          24.727000    -21.177000     -3.105000
C          26.024000    -25.077000     -0.129000
C          25.579000    -24.563000     -2.276000
C          24.544000    -25.453000     -1.886000
C          22.173000    -25.346000     -1.203000
C          23.940000    -23.235000      3.463000
C          20.976000    -20.661000      1.215000
C          21.177000    -24.380000     -1.391000
C          26.316000    -20.547000      1.420000
C          20.268000    -22.389000     -0.328000
C          23.639000    -19.149000     -0.511000
C          25.169000    -24.820000      2.166000
C          22.853000    -24.178000     -2.909000
C          22.904000    -19.584000      1.812000
C          23.840000    -25.918000      0.488000
C          24.947000    -19.354000     -0.122000
C          21.282000    -20.418000     -1.208000
C          27.078000    -23.048000     -0.968000
C          27.196000    -22.568000      0.361000
C          22.255000    -20.236000     -2.175000
C          25.163000    -23.679000      2.914000
C          24.577000    -20.916000      2.929000
C          26.239000    -24.661000      1.204000
C          21.676000    -22.896000      2.924000
C          21.325000    -22.276000     -2.540000
C          24.227000    -19.810000      2.182000
C          23.455000    -19.613000     -1.850000
C          24.011000    -25.485000      1.820000
C          23.536000    -21.855000     -3.406000
C          22.485000    -25.703000      0.120000
C          25.109000    -23.432000     -2.916000
C          20.641000    -21.664000     -1.454000
C          22.278000    -21.376000     -3.020000
C          20.831000    -23.014000      1.790000
C          22.742000    -23.757000      2.991000
C          26.462000    -24.303000     -1.235000
C          21.608000    -23.615000     -2.473000
C          25.653000    -19.884000     -1.277000
C          26.758000    -23.350000      1.423000
C          26.686000    -22.037000     -1.788000
C          22.779000    -24.961000      2.199000
C          24.856000    -25.753000     -0.516000
$end

--------------------------------------------------------------

             Standard Nuclear Orientation (Angstroms)
    I     Atom           X                Y                Z
 ----------------------------------------------------------------
    1      O      10.5160981038     3.8355096052     4.8834475798
    2      C      11.7301481620     4.3663081151     5.4651316847
    3      H      12.6200628948     3.7473233139     5.3010171385
    4      H      11.5042560258     4.5420991058     6.5245826135
    5      H      11.9550672975     5.3750201772     5.0958007246
    6      O      10.8035599617     1.7443264266     5.7559792949
    7      C      10.1472043378     2.5332721017     5.1333292995
    8      C       8.8190122861     2.2521396458     4.4320815429
    9      H       8.2037985317     3.1562766453     4.5201855875
   10      H       8.2505882919     1.4923663690     4.9829969000
   11      C       8.8262171442     1.8419765622     2.8836412519
   12      H       9.6836777313     2.2351027268     2.3251270082
   13      H       8.9083508221     0.7620915970     2.7082658805
   14      C       7.4575385640     2.1772634662     2.2429988899
   15      H       6.7084429566     1.7126817341     2.8955297974
   16      H       7.2238532899     3.2399246349     2.3833820549
   17      C       7.3717153105     1.8641431069     0.7252258470
   18      C       8.4116968579     2.5377393759    -0.0862619518
   19      C       9.5080836968     1.8608095493    -0.7017096825
   20      H       9.5871910362     0.7818836619    -0.6089359883
   21      C      10.4066346708     2.5997119217    -1.3692165598
   22      H      11.2345976689     2.1946040652    -1.9445337752
   23      C      10.2870482602     3.9935217257    -1.4474106827
   24      H      10.9477765809     4.5276028100    -2.1241709664
   25      C       9.2618237760     4.7119602642    -0.7433348181
   26      H       9.0854375849     5.7807843381    -0.8212835877
   27      C       8.2416635286     3.9541789179    -0.1442075354
   28      H       7.3527570273     4.3464381962     0.3407005905
   29      C       3.8761767422     2.0091207794    -3.5793788493
   30      C       5.4444440561     0.2588036723    -4.0759839809
   31      C       2.5917288507    -3.2030598455    -3.5414085038
   32      C       1.9931194555     1.1540540350     1.1006870816
   33      C       3.8639956427    -3.9502901544    -0.3692998872
   34      C       5.2128855912     1.5106982219    -3.5649079454
   35      C       1.8786741375    -1.6498825095     1.4967124891
   36      C       2.2171728063    -1.0621951304    -4.4634209990
   37      C       6.9447085651    -1.4693345725    -0.8258711199
   38      C       2.9638546855     0.4951047293     1.8605172769
   39      C       6.7855182700     0.6325579903     0.1976131763
   40      C       6.5097495713    -1.6992767521     0.4274138708
   41      C       4.2462467945    -1.4024124990     2.0258649318
   42      C       2.0491017435    -2.9379825681     0.8613537950
   43      C       6.8111685317     0.4754413882    -2.3037779241
   44      C       1.7220510122    -3.6526180034    -1.3995840666
   45      C       5.9764555335     1.9110762201     0.0818391533
   46      C       4.6725741125     1.9671292807     0.8450909429
   47      C       3.0501043558    -4.0618399128    -1.4653772679
   48      C       0.2646625617     0.0851835930    -1.8689625180
   49      C       0.7148057821    -1.8814750756    -2.7981007007
   50      C       1.0283690243    -0.8523458897    -3.7452122104
   51      C       3.1351181314     0.0131453701    -4.6859141180
   52      C       3.6858290080     2.5336854675     0.0697625056
   53      C       7.1175197938    -0.1234839269    -1.0789982006
   54      C       4.4154458217    -0.4701931821    -4.6932523342
   55      C       2.8998162453    -0.9005230542     2.0827135149
   56      C       6.4108598444    -0.3410132985    -3.3657895528
   57      C       5.5862564626    -2.8077984293     0.5866437966
   58      C       1.5161105631     1.9960883389    -0.9407265824
   59      C       2.9337217558    -2.2361172984    -4.4721012369
   60      C       6.3149448520    -0.4721737227     1.1125833948
   61      C       1.7163692330     1.4038663973    -3.2803392934
   62      C       4.4589272067    -2.6390037260     1.4051192676
   63      C       6.5947407941    -2.3315462403    -1.9490717249
   64      C       0.4557186284    -1.8437994543    -0.2998828570
   65      C       0.8868311278    -0.9613102067     0.7741105045
   66      C       5.8126807516    -3.4048929342    -1.7542411202
   67      C       2.3814602067     2.1410740881     0.1840574531
   68      C       4.3165931880     0.8879750515     1.7606551029
   69      C       0.6259892484     0.9092805399    -0.7521056572
   70      C       5.5800087843     2.3517038631    -1.2892130905
   71      C       5.2960315348    -2.4931050809    -3.7697880677
   72      C       5.0496261464    -0.2915673513     1.8122632587
   73      C       5.2432375739    -3.6353291394    -0.5303969215
   74      C       2.0605968355     2.2314178456    -2.2391308810
   75      C       3.5792434872    -3.8112171916    -2.7174719254
   76      C       2.8354483540     1.2663692408    -4.1124675604
   77      C       1.4720554314    -3.1093288343    -2.7016532231
   78      C       6.3464530797    -1.7297959208    -3.1938925007
   79      C       4.9653165371    -3.5073878167    -2.8770125516
   80      C       6.0092552421     1.6606619363    -2.4127381386
   81      C       4.2453062793     2.6837360208    -1.2162413880
   82      C       0.2103404475    -1.2830374097    -1.6643008566
   83      C       4.2687935264    -1.8343476739    -4.5284353855
   84      C       3.4055148130    -3.3779396694     0.8213496209
   85      C       0.9166148179     0.4045059317     0.5314477594
   86      C       1.2349897508    -2.9765941254    -0.2537227992
   87      C       3.4213186350     2.6075885781    -2.3906688779
   88      C       0.7736101052     0.3841377913    -3.1570761718
   89      O      -0.2115910995    -7.4102974949     1.7890418166
   90      C       1.0511115651    -8.0912287838     1.7861159504
   91      H       1.2409693622    -8.6360277810     2.7193881880
   92      H       1.9061664501    -7.4051013490     1.7435449868
   93      H       1.1673888407    -8.7136914536     0.8896067090
   94      O       0.1511997164    -6.7939045385    -0.3574405493
   95      C      -0.5501478999    -6.7347483413     0.6310497467
   96      C      -1.8752832652    -5.9540209812     0.8423908285
   97      H      -2.5109176363    -6.5998662373     1.4603373079
   98      H      -2.5030025482    -5.8911502996    -0.0552665555
   99      C      -1.6704373214    -4.5451287158     1.4051960558
  100      H      -1.0577082171    -4.5525831886     2.3152364261
  101      H      -1.1231798146    -4.0133499872     0.6169634726
  102      C      -3.1684864058    -4.0133001990     1.5185819871
  103      H      -3.6259214046    -4.0017986580     0.5225860350
  104      H      -3.7074919309    -4.6807438893     2.2030218780
  105      C      -3.2078660750    -2.5120486176     2.0630403701
  106      C      -2.5445179061    -2.4515034527     3.4094461373
  107      C      -1.1420859182    -2.3325844387     3.4535118558
  108      H      -0.6370678646    -2.1744586578     2.5060489262
  109      C      -0.4184745765    -2.4967591119     4.6417552243
  110      H       0.6645843766    -2.4098734641     4.6421892099
  111      C      -1.1550887036    -2.6836542739     5.8653731491
  112      H      -0.5730649690    -2.7962338929     6.7744733646
  113      C      -2.5429863606    -2.6480856199     5.8736172161
  114      H      -3.0973003198    -2.7502910875     6.8019534036
  115      C      -3.2492941514    -2.6147488211     4.6258504260
  116      H      -4.3042913070    -2.8728775719     4.6023440495
  117      C      -6.7927921243     1.3396225653     3.3149438488
  118      C      -4.7693874306     2.5401864887     2.8832625879
  119      C      -6.1849580677     4.4373329068    -0.9747986143
  120      C      -7.9279109746    -1.5738715950    -0.6080867366
  121      C      -4.4901004698     2.1944080311    -2.9557738096
  122      C      -5.3887019595     1.4490714394     3.4671139932
  123      C      -7.0527722359    -0.3612708832    -2.9409850845
  124      C      -7.3792433312     4.1785079938     1.1301496924
  125      C      -2.5720202332     0.7274628769     0.2367440244
  126      C      -6.7432909093    -1.9810313867    -1.2233730155
  127      C      -3.3205349489    -1.3636263114     1.1105127161
  128      C      -2.8592106454    -0.1159521868    -0.8605010245
  129      C      -4.9326044099    -1.2464779206    -2.2219733390
  130      C      -6.4752735229     0.8333204268    -3.5078041374
  131      C      -3.4299104273     0.8212079390     2.4777282453
  132      C      -6.6720670369     3.1554621821    -2.7492845390
  133      C      -4.5420220520    -1.8231433132     1.8455034522
  134      C      -5.7579315116    -2.2624041844     1.0714956531
  135      C      -5.2484923770     3.2906780834    -2.7045872505
  136      C      -9.3544714430     1.5925358361    -0.2538661694
  137      C      -8.4372792682     3.4807620594    -1.0694581288
  138      C      -8.4746373133     3.6649153191     0.3377081562
  139      C      -6.9265762530     3.5540668543     2.2588532760
  140      C      -7.0190681408    -1.8247617726     1.6186862249
  141      C      -2.9038741196     0.0425858229     1.4126106915
  142      C      -5.5317815487     3.6297430225     2.3554806554
  143      C      -6.3203059884    -1.4181650536    -2.4298912490
  144      C      -3.5654353716     2.1977420480     2.2990278365
  145      C      -3.3100853075     0.4907319567    -2.0501839188
  146      C      -8.8629396775    -0.3903990759     1.1210755233
  147      C      -6.3012522902     4.5588358138     0.4322528053
  148      C      -3.4190711320    -1.3118036606    -0.3576218259
  149      C      -8.6320671696     1.8188092439     2.0449940723
  150      C      -4.3598057997    -0.0975087546    -2.7256613455
  151      C      -2.6482018439     2.1004354575     0.0997890857
  152      C      -8.4243957275     1.4289812488    -2.4988354477
  153      C      -8.2907177035     0.0270261384    -2.3338595271
  154      C      -3.0367042269     2.6961742362    -1.0872674445
  155      C      -8.0871565934    -1.4568124468     0.7712982672
  156      C      -5.6340747953    -2.2680741355    -0.3697688492
  157      C      -9.3324544127     0.1861080213    -0.1210277253
  158      C      -5.2291160396    -0.9237832838     2.8497212521
  159      C      -3.9203062449     3.9332670184     0.6005044364
  160      C      -4.4921810743    -1.8790866819    -1.0394796009
  161      C      -3.3876359462     1.9116739943    -2.1805013165
  162      C      -8.5685179357     0.4177303194     2.1995687864
  163      C      -4.9473901631     4.0697740778    -1.5771508273
  164      C      -7.5465880467     2.3953844678     2.7570123901
  165      C      -7.2104942386     3.7914393415    -1.6245609280
  166      C      -3.1377575768     2.8939542779     1.1743010987
  167      C      -3.8118948295     3.8468184667    -0.7885177423
  168      C      -4.6395182561     0.3461670264     3.0810341643
  169      C      -6.5771169921    -0.9407141361     2.5952162852
  170      C      -8.9346273114     2.2389167256    -1.4455366989
  171      C      -5.1168307251     4.2588854700     1.1834287816
  172      C      -5.0873986580     0.9719761545    -3.3891156857
  173      C      -8.7116118289    -0.5765082352    -1.1549590245
  174      C      -7.3181997461     1.9263712101    -3.1129353395
  175      C      -7.4154108878     0.1799497438     2.9410844867
  176      C      -9.0571733875     2.4441009036     0.8219682983
 ----------------------------------------------------------------

    9   -5804.2483578152      8.82E-06 Convergence criterion met
 Total energy in the final basis set = -5804.2483578152

                    Orbital Energies (a.u.)
 --------------------------------------------------------------

 Alpha MOs
 -- Occupied --
-19.190 -19.188 -19.139 -19.137 -10.320 -10.317 -10.246 -10.241
-10.240 -10.239 -10.238 -10.238 -10.236 -10.236 -10.234 -10.230
-10.229 -10.228 -10.226 -10.226 -10.225 -10.225 -10.224 -10.224
-10.223 -10.223 -10.222 -10.222 -10.222 -10.222 -10.221 -10.221
-10.221 -10.221 -10.221 -10.221 -10.220 -10.220 -10.220 -10.220
-10.220 -10.219 -10.219 -10.219 -10.219 -10.219 -10.219 -10.219
-10.219 -10.218 -10.218 -10.218 -10.218 -10.218 -10.218 -10.218
-10.217 -10.217 -10.217 -10.217 -10.217 -10.216 -10.216 -10.216
-10.216 -10.216 -10.216 -10.215 -10.215 -10.215 -10.215 -10.215
-10.215 -10.215 -10.214 -10.214 -10.214 -10.214 -10.214 -10.214
-10.214 -10.214 -10.214 -10.214 -10.213 -10.213 -10.213 -10.213
-10.213 -10.213 -10.213 -10.213 -10.213 -10.213 -10.213 -10.213
-10.213 -10.212 -10.212 -10.212 -10.212 -10.211 -10.211 -10.211
-10.211 -10.211 -10.211 -10.211 -10.211 -10.210 -10.210 -10.210
-10.210 -10.210 -10.210 -10.210 -10.210 -10.209 -10.209 -10.209
-10.209 -10.209 -10.209 -10.209 -10.208 -10.208 -10.208 -10.208
-10.207 -10.206 -10.206 -10.206 -10.206 -10.205 -10.205 -10.203
-10.203 -10.203 -10.203 -10.201 -10.201 -10.201 -10.201 -10.201
-10.200 -10.200 -10.196 -10.195  -1.092  -1.090  -1.016  -1.007
 -0.985  -0.982  -0.967  -0.965  -0.965  -0.963  -0.962  -0.960
 -0.936  -0.935  -0.929  -0.928  -0.928  -0.926  -0.924  -0.924
 -0.921  -0.917  -0.900  -0.897  -0.891  -0.890  -0.888  -0.883
 -0.881  -0.873  -0.855  -0.850  -0.845  -0.842  -0.841  -0.838
 -0.837  -0.835  -0.821  -0.820  -0.806  -0.802  -0.802  -0.799
 -0.799  -0.795  -0.794  -0.794  -0.792  -0.790  -0.785  -0.783
 -0.772  -0.770  -0.770  -0.769  -0.767  -0.764  -0.763  -0.762
 -0.757  -0.745  -0.742  -0.737  -0.733  -0.731  -0.720  -0.717
 -0.715  -0.714  -0.713  -0.713  -0.711  -0.710  -0.709  -0.708
 -0.707  -0.707  -0.706  -0.703  -0.700  -0.695  -0.676  -0.673
 -0.661  -0.658  -0.657  -0.656  -0.648  -0.645  -0.635  -0.632
 -0.630  -0.627  -0.626  -0.624  -0.621  -0.621  -0.620  -0.617
 -0.616  -0.615  -0.614  -0.614  -0.613  -0.611  -0.609  -0.608
 -0.607  -0.605  -0.604  -0.601  -0.568  -0.567  -0.565  -0.563
 -0.562  -0.560  -0.560  -0.559  -0.558  -0.557  -0.555  -0.552
 -0.538  -0.536  -0.533  -0.532  -0.530  -0.529  -0.529  -0.525
 -0.523  -0.521  -0.520  -0.518  -0.517  -0.516  -0.514  -0.512
 -0.509  -0.505  -0.499  -0.497  -0.492  -0.489  -0.486  -0.485
 -0.484  -0.482  -0.482  -0.479  -0.479  -0.478  -0.478  -0.477
 -0.472  -0.471  -0.470  -0.470  -0.469  -0.468  -0.468  -0.466
 -0.466  -0.466  -0.465  -0.464  -0.462  -0.462  -0.461  -0.458
 -0.454  -0.453  -0.451  -0.450  -0.449  -0.448  -0.446  -0.445
 -0.443  -0.442  -0.441  -0.439  -0.439  -0.438  -0.437  -0.434
 -0.432  -0.431  -0.430  -0.428  -0.426  -0.426  -0.426  -0.424
 -0.424  -0.423  -0.422  -0.421  -0.421  -0.421  -0.420  -0.419
 -0.418  -0.417  -0.416  -0.415  -0.415  -0.415  -0.413  -0.412
 -0.411  -0.411  -0.407  -0.405  -0.404  -0.398  -0.396  -0.395
 -0.394  -0.393  -0.392  -0.390  -0.389  -0.388  -0.384  -0.382
 -0.380  -0.379  -0.376  -0.374  -0.374  -0.368  -0.367  -0.367
 -0.366  -0.363  -0.363  -0.362  -0.360  -0.359  -0.358  -0.358
 -0.357  -0.356  -0.355  -0.354  -0.354  -0.353  -0.353  -0.351
 -0.350  -0.350  -0.348  -0.348  -0.347  -0.347  -0.346  -0.345
 -0.345  -0.342  -0.341  -0.341  -0.340  -0.337  -0.336  -0.335
 -0.334  -0.333  -0.332  -0.330  -0.329  -0.327  -0.326  -0.324
 -0.310  -0.309  -0.300  -0.295  -0.286  -0.286  -0.275  -0.273
 -0.272  -0.271  -0.270  -0.267  -0.266  -0.266  -0.265  -0.265
 -0.264  -0.262  -0.261  -0.260  -0.259  -0.258  -0.255  -0.252
 -0.249  -0.247  -0.243  -0.241  -0.224  -0.223  -0.215  -0.210
 -0.208  -0.208  -0.206  -0.205  -0.201  -0.198

          Ground-State Mulliken Net Atomic Charges

     Atom                 Charge (a.u.)
  ----------------------------------------
      1 O                    -0.468623
      2 C                    -0.084739
      3 H                     0.133970
      4 H                     0.123746
      5 H                     0.122568
      6 O                    -0.450044
      7 C                     0.577902
      8 C                    -0.249767
      9 H                     0.123811
     10 H                     0.128945
     11 C                    -0.184680
     12 H                     0.125055
     13 H                     0.113164
     14 C                    -0.178492
     15 H                     0.111934
     16 H                     0.105839
     17 C                    -0.001371
     18 C                     0.075024
     19 C                    -0.090180
     20 H                     0.095554
     21 C                    -0.084172
     22 H                     0.092121
     23 C                    -0.090844
     24 H                     0.090491
     25 C                    -0.101158
     26 H                     0.094120
     27 C                    -0.090153
     28 H                     0.096965
     29 C                    -0.023470
     30 C                     0.038204
     31 C                     0.009013
     32 C                    -0.009043
     33 C                     0.002655
     34 C                    -0.014867
     35 C                     0.013336
     36 C                     0.018930
     37 C                     0.034166
     38 C                    -0.004712
     39 C                    -0.104823
     40 C                    -0.006793
     41 C                    -0.010950
     42 C                    -0.024428
     43 C                     0.000602
     44 C                     0.015481
     45 C                    -0.091232
     46 C                     0.024998
     47 C                     0.027428
     48 C                     0.001965
     49 C                    -0.006165
     50 C                    -0.009156
     51 C                    -0.018915
     52 C                     0.027118
     53 C                     0.015017
     54 C                     0.022765
     55 C                    -0.023448
     56 C                    -0.011876
     57 C                    -0.031496
     58 C                    -0.023224
     59 C                    -0.007665
     60 C                     0.003228
     61 C                     0.040837
     62 C                     0.018903
     63 C                     0.013603
     64 C                    -0.030159
     65 C                    -0.014407
     66 C                    -0.004064
     67 C                     0.006535
     68 C                    -0.013419
     69 C                     0.018638
     70 C                     0.043743
     71 C                    -0.012039
     72 C                     0.022478
     73 C                     0.005792
     74 C                    -0.015795
     75 C                     0.016509
     76 C                    -0.001704
     77 C                    -0.024120
     78 C                    -0.009005
     79 C                    -0.024119
     80 C                     0.009617
     81 C                    -0.001156
     82 C                     0.011274
     83 C                    -0.003153
     84 C                    -0.006534
     85 C                    -0.012552
     86 C                     0.042166
     87 C                    -0.007233
     88 C                    -0.016951
     89 O                    -0.461443
     90 C                    -0.085857
     91 H                     0.118949
     92 H                     0.116914
     93 H                     0.131761
     94 O                    -0.465904
     95 C                     0.574571
     96 C                    -0.246343
     97 H                     0.123105
     98 H                     0.125070
     99 C                    -0.199737
    100 H                     0.134724
    101 H                     0.124187
    102 C                    -0.169242
    103 H                     0.112705
    104 H                     0.119017
    105 C                    -0.020706
    106 C                     0.098264
    107 C                    -0.098490
    108 H                     0.091302
    109 C                    -0.102450
    110 H                     0.095974
    111 C                    -0.085818
    112 H                     0.089911
    113 C                    -0.089652
    114 H                     0.094453
    115 C                    -0.118983
    116 H                     0.095684
    117 C                    -0.001054
    118 C                     0.016601
    119 C                    -0.007901
    120 C                     0.026073
    121 C                     0.029126
    122 C                    -0.029294
    123 C                     0.026066
    124 C                     0.019191
    125 C                     0.031289
    126 C                    -0.001052
    127 C                    -0.051752
    128 C                     0.007473
    129 C                    -0.010869
    130 C                    -0.032150
    131 C                    -0.028083
    132 C                    -0.010277
    133 C                    -0.083926
    134 C                     0.015972
    135 C                    -0.012951
    136 C                     0.017505
    137 C                    -0.009446
    138 C                    -0.028294
    139 C                     0.003483
    140 C                    -0.035272
    141 C                     0.020475
    142 C                    -0.013565
    143 C                    -0.027574
    144 C                     0.027135
    145 C                    -0.027697
    146 C                     0.008011
    147 C                    -0.005405
    148 C                     0.019147
    149 C                    -0.011005
    150 C                     0.017817
    151 C                     0.016201
    152 C                     0.001370
    153 C                    -0.002726
    154 C                    -0.006421
    155 C                     0.006735
    156 C                     0.000323
    157 C                    -0.033343
    158 C                     0.022885
    159 C                     0.006579
    160 C                    -0.008106
    161 C                     0.010815
    162 C                    -0.003653
    163 C                     0.007615
    164 C                    -0.009336
    165 C                     0.035385
    166 C                    -0.031311
    167 C                    -0.016511
    168 C                     0.020110
    169 C                     0.014114
    170 C                     0.001668
    171 C                     0.001798
    172 C                    -0.013538
    173 C                    -0.009865
    174 C                     0.002381
    175 C                     0.003951
    176 C                    -0.000191
  ----------------------------------------
  Sum of atomic charges =     0.000000

                    Cartesian Multipole Moments
 -----------------------------------------------------------------
    Charge (ESU x 10^10)
                 0.0000
    Dipole Moment (Debye)
         X       3.6083      Y       1.3521      Z       1.5593
       Tot       4.1568
    Quadrupole Moments (Debye-Ang)
        XX    -797.8536     XY      35.7011     YY    -789.6781
        XZ      -9.5419     YZ      -6.8193     ZZ    -809.6180

 Total job time:  871.98s(wall), 8345.84s(cpu)
        *  Thank you very much for using Q-Chem.  Have a nice day.  *
