 Q-Chem 4.4, Q-Chem, Inc., Pleasanton, CA (2016)
 Q-Chem 4.4.2 for Intel X86 Linux

User input:
--------------------------------------------------------------
$comment
SP
$end

$rem
MEM_STATIC 5000
MEM_TOTAL 20000
JOBTYPE SP
EXCHANGE B3LYP
BASIS 6-31g(d,p)
$end

$molecule
0 1
O          -7.604000     13.093000     -3.934000
C          -7.169000     14.464000     -3.648000
H          -6.794000     14.992000     -4.533000
H          -6.436000     14.464000     -2.831000
H          -8.055000     14.977000     -3.253000
O          -5.610000     12.143000     -4.455000
C          -6.825000     12.176000     -4.510000
C          -7.601000     11.016000     -5.034000
H          -8.624000     11.409000     -5.095000
H          -7.800000     10.278000     -4.247000
C          -7.074000     10.275000     -6.288000
H          -6.872000     10.986000     -7.099000
H          -6.170000      9.747000     -5.961000
C          -8.057000      9.140000     -6.739000
H          -8.477000      8.619000     -5.870000
H          -8.883000      9.648000     -7.251000
C          -7.405000      8.167000     -7.826000
C          -6.182000      7.441000     -7.306000
C          -6.289000      6.096000     -6.939000
H          -7.252000      5.619000     -6.781000
C          -5.113000      5.363000     -6.697000
H          -5.118000      4.364000     -6.270000
C          -3.838000      5.961000     -6.692000
H          -2.987000      5.323000     -6.473000
C          -3.755000      7.331000     -7.041000
H          -2.792000      7.812000     -7.187000
C          -4.912000      8.016000     -7.411000
H          -4.790000      8.997000     -7.860000
C          -5.542000      8.328000    -13.046000
C          -6.189000      6.004000    -12.819000
C          -9.836000      6.141000    -15.517000
C          -9.454000     11.280000    -11.904000
C         -12.119000      6.362000    -12.829000
C          -5.694000      7.166000    -12.287000
C         -11.871000      9.975000    -12.552000
C          -7.669000      7.168000    -15.667000
C          -9.149000      5.620000    -10.250000
C         -10.200000     10.583000    -10.954000
C          -8.254000      7.491000     -8.940000
C         -10.250000      6.413000     -9.858000
C         -11.460000      8.820000    -10.382000
C         -12.379000      8.780000    -13.091000
C          -6.934000      6.202000    -10.707000
C         -11.586000      7.479000    -14.971000
C          -7.456000      8.728000     -9.248000
C          -8.189000      9.894000     -9.823000
C         -11.626000      6.294000    -14.171000
C          -8.871000     10.386000    -15.219000
C          -9.642000      8.455000    -15.999000
C          -8.275000      8.370000    -15.981000
C          -6.552000      7.132000    -14.875000
C          -7.496000     10.501000    -10.904000
C          -8.000000      6.255000     -9.809000
C          -6.532000      5.909000    -14.183000
C         -11.407000      9.942000    -11.244000
C          -6.969000      5.366000    -11.850000
C         -11.393000      6.456000    -10.713000
C          -7.671000     11.205000    -13.183000
C          -8.425000      6.044000    -15.458000
C          -9.782000      7.601000     -9.203000
C          -6.589000      9.534000    -14.676000
C         -12.061000      7.668000    -10.906000
C          -9.235000      4.858000    -11.436000
C         -11.143000      9.816000    -14.751000
C         -11.112000     10.622000    -13.583000
C         -10.412000      4.745000    -12.252000
C          -8.090000     11.212000    -11.892000
C          -9.596000      9.944000     -9.914000
C          -8.777000     11.187000    -14.062000
C          -6.410000      8.574000    -10.351000
C          -8.519000      4.594000    -13.550000
C         -10.356000      8.865000     -9.542000
C         -11.405000      5.621000    -11.880000
C          -6.568000     10.322000    -13.502000
C         -10.558000      5.483000    -14.478000
C          -6.015000      8.310000    -14.399000
C         -10.404000      7.354000    -15.724000
C          -8.101000      4.645000    -12.229000
C          -9.930000      4.700000    -13.590000
C          -6.129000      7.357000    -10.947000
C          -6.426000      9.662000    -11.207000
C          -9.976000      9.697000    -15.576000
C          -7.763000      5.307000    -14.499000
C         -12.537000      7.610000    -12.286000
C          -9.875000     11.285000    -13.201000
C         -11.933000      8.701000    -14.458000
C          -5.909000      9.568000    -12.509000
C          -7.746000      9.604000    -15.492000
O          -7.361000     18.401000    -12.617000
C          -6.255000     19.357000    -12.967000
H          -6.396000     20.300000    -12.424000
H          -6.313000     19.670000    -14.016000
H          -5.234000     19.008000    -12.766000
O          -6.640000     16.697000    -14.017000
C          -7.432000     17.160000    -13.232000
C          -8.629000     16.332000    -12.729000
H          -9.006000     15.820000    -13.624000
H          -9.407000     17.057000    -12.461000
C          -8.445000     15.382000    -11.506000
H          -9.407000     14.970000    -11.174000
H          -7.771000     14.540000    -11.707000
C          -7.841000     16.174000    -10.372000
H          -7.093000     16.858000    -10.791000
H          -8.556000     16.833000     -9.865000
C          -7.045000     15.380000     -9.373000
C          -7.907000     14.731000     -8.299000
C          -8.257000     15.520000     -7.148000
H          -8.020000     16.574000     -7.028000
C          -8.981000     14.949000     -6.128000
H          -9.154000     15.454000     -5.182000
C          -9.518000     13.687000     -6.229000
H         -10.169000     13.217000     -5.498000
C          -9.311000     12.959000     -7.436000
H          -9.728000     11.967000     -7.584000
C          -8.456000     13.456000     -8.387000
H          -8.272000     12.802000     -9.234000
C          -2.828000     15.202000     -5.808000
C          -3.300000     12.880000     -6.185000
C           0.515000     12.383000     -8.703000
C          -2.093000     17.923000     -9.962000
C          -1.160000     12.726000    -11.756000
C          -3.772000     14.156000     -6.107000
C          -0.902000     16.351000    -11.881000
C           0.167000     13.502000     -6.606000
C          -4.768000     12.521000    -10.060000
C          -2.922000     17.384000    -10.975000
C          -5.809000     14.624000     -9.751000
C          -4.550000     13.313000    -11.157000
C          -3.210000     15.581000    -12.353000
C          -0.400000     15.016000    -12.078000
C          -4.985000     13.266000     -7.727000
C           0.749000     13.557000    -10.575000
C          -5.668000     15.863000     -8.871000
C          -4.736000     16.953000     -9.432000
C          -0.133000     12.565000    -10.829000
C           0.601000     16.668000     -8.157000
C           1.271000     14.602000     -8.456000
C           0.803000     14.634000     -7.152000
C          -0.970000     13.667000     -5.909000
C          -3.940000     17.462000     -8.429000
C          -5.402000     13.335000     -9.144000
C          -1.880000     12.634000     -6.141000
C          -2.310000     16.593000    -11.985000
C          -4.027000     12.297000     -7.238000
C          -3.328000     13.154000    -11.921000
C          -1.526000     17.695000     -7.774000
C           0.023000     12.376000     -7.413000
C          -5.096000     14.628000    -11.077000
C          -0.779000     16.127000     -6.136000
C          -2.699000     14.273000    -12.467000
C          -3.753000     11.655000     -9.575000
C           0.760000     15.915000    -10.427000
C          -0.135000     16.886000    -10.869000
C          -2.576000     11.525000    -10.229000
C          -2.615000     17.910000     -8.668000
C          -4.164000     16.848000    -10.697000
C          -0.410000     17.563000     -8.580000
C          -5.106000     15.708000     -7.498000
C          -1.963000     11.197000     -8.085000
C          -4.316000     15.735000    -11.548000
C          -2.411000     12.184000    -11.472000
C          -1.804000     17.065000     -6.559000
C          -0.225000     11.807000     -9.702000
C          -1.460000     14.980000     -5.647000
C           1.170000     13.460000     -9.248000
C          -3.345000     11.495000     -8.220000
C          -1.499000     11.267000     -9.371000
C          -4.783000     14.437000     -7.014000
C          -4.168000     16.721000     -7.265000
C           1.190000     15.832000     -9.093000
C          -1.214000     11.846000     -7.106000
C          -1.277000     13.994000    -12.375000
C          -0.757000     17.650000     -9.893000
C           0.625000     14.783000    -11.176000
C          -3.076000     16.514000     -6.347000
C           0.408000     15.948000     -6.900000
$end

--------------------------------------------------------------

             Standard Nuclear Orientation (Angstroms)
    I     Atom           X                Y                Z
 ----------------------------------------------------------------
    1      O       2.1484726338    -3.6594014075     5.1928815044
    2      C       3.4763578525    -3.1744945014     5.5830713791
    3      H       3.7745554633    -2.2600010536     5.0563704023
    4      H       4.2189444921    -3.9742415980     5.4658209454
    5      H       3.4137155514    -2.9822549208     6.6616398218
    6      O       2.5590898330    -4.2582545074     3.0428244167
    7      C       1.7997380155    -3.9240261160     3.9327767748
    8      C       0.3225486964    -4.0235523075     3.7585405767
    9      H      -0.0672553451    -3.5163190313     4.6504297025
   10      H      -0.0453116812    -5.0244902074     4.0162537180
   11      C      -0.2958737839    -3.6009596478     2.4027031677
   12      H       0.0467619412    -2.5978717400     2.1190459640
   13      H       0.0168739006    -4.3677379700     1.6835586132
   14      C      -1.8604877171    -3.6962505393     2.4313018756
   15      H      -2.1876016671    -4.5841105081     2.9860118354
   16      H      -2.2020396100    -2.8147522649     2.9869880251
   17      C      -2.5044686591    -3.5677619613     0.9745310523
   18      C      -2.0627110194    -4.6723541295     0.0375511540
   19      C      -2.9409571409    -5.7234672569    -0.2435323630
   20      H      -3.8240124228    -5.9107624341     0.3606165307
   21      C      -2.6295825572    -6.6053653352    -1.2943085751
   22      H      -3.1818025788    -7.5228856188    -1.4775149536
   23      C      -1.4098692674    -6.5437149006    -1.9955593966
   24      H      -1.2443960998    -7.2791764212    -2.7771737405
   25      C      -0.5230583074    -5.4865555490    -1.6768582413
   26      H       0.3669284512    -5.3062480352    -2.2730618727
   27      C      -0.9001494794    -4.5375077676    -0.7271822141
   28      H      -0.2945639842    -3.6396374968    -0.6501031328
   29      C      -3.0238040812     0.1706432805    -3.0874520801
   30      C      -4.9722050401    -1.2253347643    -3.4425478446
   31      C      -8.0994842714     1.7707326237    -2.0852391783
   32      C      -3.0293242653     1.8910874206     1.6414223619
   33      C      -8.4518197498     0.3204696860     1.1177080773
   34      C      -3.6674088266    -1.0679357709    -3.0539279812
   35      C      -5.6814367429     2.1703707718     2.5650663494
   36      C      -6.0737535718     2.0050655001    -3.3559166495
   37      C      -6.2127730041    -2.7865738927    -0.0466178525
   38      C      -3.6560021787     0.9098930448     2.4091185191
   39      C      -3.8937682376    -2.9078106540     0.7441315011
   40      C      -6.2163206200    -2.3794886772     1.3057811425
   41      C      -5.4793187998    -0.2879001650     2.9226951207
   42      C      -7.0198245032     2.0019567084     2.1688783810
   43      C      -4.5731176966    -2.5853768436    -1.6973292809
   44      C      -8.0776593519     2.5232659477     0.0558066571
   45      C      -2.6363020736    -2.1207289171     0.4969105754
   46      C      -2.4824228303    -0.8247777651     1.2209974418
   47      C      -8.6527766994     1.2142085209     0.0179425571
   48      C      -4.4307453962     3.8147449169    -0.9009998396
   49      C      -6.5307031705     3.4606631719    -1.5306072286
   50      C      -5.7248785437     3.0906581775    -2.5746287681
   51      C      -5.1236332717     1.1176481539    -3.7872064232
   52      C      -1.9970159029     0.2173675643     0.3869877133
   53      C      -4.8959091904    -3.0141889461    -0.4098919690
   54      C      -5.7248309253    -0.1431297899    -3.9421043181
   55      C      -4.9613606018     1.0294982932     2.8924030851
   56      C      -5.5725513975    -2.1790626796    -2.6152677743
   57      C      -7.1996454377    -1.4331272719     1.7262515856
   58      C      -2.4029190000     2.4428424733    -0.3892764846
   59      C      -7.2602268551     1.3519333913    -3.1454585858
   60      C      -4.8678983989    -2.2964727222     1.7897841021
   61      C      -3.4035348017     2.3811582054    -2.6667700781
   62      C      -6.8409799864    -0.4219167966     2.6213658066
   63      C      -7.2075023336    -2.2919462747    -0.9186803965
   64      C      -6.0940494434     3.6247980748     0.8028921300
   65      C      -5.1094138538     3.1823192031     1.7245895878
   66      C      -8.3074864188    -1.4598892338    -0.5165981994
   67      C      -2.2156036776     1.5364015767     0.6034817291
   68      C      -3.3629821819    -0.4095691724     2.2420983442
   69      C      -3.4138110169     3.3637814968    -0.0340728174
   70      C      -2.4672638917    -1.5872420296    -0.9247992522
   71      C      -7.6715149131    -0.9625983425    -2.6705007073
   72      C      -4.4643231506    -1.1622002824     2.5596191827
   73      C      -8.1922167478    -1.0127047699     0.7789896819
   74      C      -2.4356601220     1.9256841641    -1.7418792726
   75      C      -8.6531677039     0.7378178414    -1.2726564385
   76      C      -3.8006266225     1.3186017742    -3.4526917768
   77      C      -7.6821258805     2.7710294863    -1.2715683848
   78      C      -6.9172883569    -2.0539736651    -2.2675016911
   79      C      -8.4979383240    -0.5532975003    -1.5966039867
   80      C      -3.3449474577    -1.9009016814    -1.9478120482
   81      C      -2.0142906773    -0.2790196958    -0.9145234354
   82      C      -5.7286135390     3.9354573156    -0.5486338357
   83      C      -7.0270538753     0.0249712744    -3.4385386117
   84      C      -7.6568960383     0.7242378181     2.2277281620
   85      C      -3.7381077242     2.9973365708     1.2763007026
   86      C      -7.2666107943     2.9192121853     1.0864806183
   87      C      -2.2044864793     0.5629629561    -2.0218715157
   88      C      -4.3633677423     3.3161630416    -2.2042858272
   89      O       3.0042122939     6.1573478348     2.6379752543
   90      C       4.2447822703     6.7431811615     2.0235995979
   91      H       5.0010998591     6.9058786056     2.8017334208
   92      H       4.0644179901     7.7560114089     1.6449472293
   93      H       4.7123377931     6.1533075832     1.2247979987
   94      O       1.7858829764     6.0847758350     0.6646876475
   95      C       1.8820790666     5.9232023297     1.8573729851
   96      C       0.7263945460     5.3138545818     2.6725359205
   97      H      -0.1764089409     5.7940086053     2.2729161292
   98      H       0.8355674479     5.7051641531     3.6912071613
   99      C       0.6018842052     3.7635037903     2.7865297727
  100      H      -0.1751560620     3.4787727718     3.5080203618
  101      H       0.3689284657     3.2746751628     1.8323708780
  102      C       1.9250312226     3.2109495325     3.2577004027
  103      H       2.7272178830     3.7709564820     2.7619083309
  104      H       2.1102812455     3.3634704101     4.3277353605
  105      C       2.2164643547     1.7894017179     2.8623252133
  106      C       1.5931780572     0.7658901769     3.8012923676
  107      C       2.3207143638     0.4119724816     4.9909373515
  108      H       3.2458820765     0.8842731117     5.3110651669
  109      C       1.8198703713    -0.5546412972     5.8308362131
  110      H       2.3898410033    -0.9554234742     6.6641291539
  111      C       0.5677601270    -1.0966484195     5.6586089925
  112      H       0.0834265751    -1.7954820598     6.3339715275
  113      C      -0.2264258189    -0.6313338921     4.5712116070
  114      H      -1.2311263280    -1.0051489629     4.3960083543
  115      C       0.3289528531     0.2088250059     3.6394806604
  116      H      -0.3038100847     0.4426565546     2.7886487902
  117      C       5.9725957259    -2.0328804409     1.5185863174
  118      C       3.9270225832    -2.9969702412     0.7168641868
  119      C       5.1081620902    -2.1840354285    -3.6518432256
  120      C       6.8973627194     2.6315762987    -0.0899631321
  121      C       3.2409344362     0.7675655492    -3.8653743859
  122      C       4.5470093105    -2.2029119938     1.6345416671
  123      C       5.8871852807     2.9350203264    -2.6315550081
  124      C       6.3936118031    -3.0806520128    -1.8313016204
  125      C       1.4166483121     0.1356851155    -0.3712633036
  126      C       5.6510115897     3.2888959394    -0.2258702744
  127      C       2.3354601551     1.3629151093     1.4319178684
  128      C       1.7270739132     1.4052422993    -0.7836435931
  129      C       3.7373117606     3.3670316395    -1.4765839812
  130      C       5.2038311265     2.1921894690    -3.6583302597
  131      C       2.6051293113    -1.1934179115     1.3216634692
  132      C       5.4274150105    -0.0908803182    -4.3257833245
  133      C       3.5916644501     1.3740467773     2.2986524617
  134      C       4.7434923180     2.2416588185     1.7582943317
  135      C       4.0939658924    -0.2781047628    -4.2101785816
  136      C       8.3381384949    -0.1126523600    -1.6660533051
  137      C       7.2154795332    -1.2428663619    -3.1723435048
  138      C       7.3939263256    -2.1337730308    -2.1259659201
  139      C       6.0349061414    -3.2714440047    -0.5503911379
  140      C       5.9447419964     1.5818976155     1.9011941746
  141      C       1.9020517693     0.0428631733     0.9169042207
  142      C       4.6628752216    -3.4935823573    -0.4192472957
  143      C       5.1353697350     3.4732761344    -1.5375266400
  144      C       2.7002716174    -2.3572008368     0.4658578579
  145      C       2.1202370753     1.6326477023    -2.1605860431
  146      C       7.8500009285     0.6685452819     0.5423395405
  147      C       5.2395064367    -3.0815703072    -2.6109816574
  148      C       2.3284480075     2.2372090707     0.2062662463
  149      C       7.7916247054    -1.6935207747     0.2004138747
  150      C       3.1070901318     2.5734627767    -2.4553843483
  151      C       1.6180325390    -0.9772855747    -1.2292531847
  152      C       7.1293885228     1.1757291810    -3.2859874118
  153      C       7.0914484946     2.2900138296    -2.4516252145
  154      C       2.0411161115    -0.8083577346    -2.5029912565
  155      C       7.0070561686     1.7341250359     0.9728809666
  156      C       4.5929567673     3.0360830253     0.6248644805
  157      C       8.1808899524     0.9682116141    -0.7665640248
  158      C       4.3106958027     0.0890434476     2.5368925858
  159      C       2.9377468601    -2.8061609402    -1.9692079184
  160      C       3.4276985331     3.0788186844    -0.1666030875
  161      C       2.1751132462     0.5085778874    -3.0072534258
  162      C       7.6555591858    -0.5842796282     1.1280281552
  163      C       3.8967659428    -1.5792568165    -3.8619365493
  164      C       6.7329014007    -2.5947836680     0.4925117371
  165      C       6.0824140106    -1.2744755653    -3.9827707869
  166      C       2.2306073094    -2.2167361104    -0.8877806088
  167      C       2.8341141494    -1.8684853055    -2.9611840599
  168      C       3.7945975561    -1.1059406371     2.0273029105
  169      C       5.6867202955     0.2923933752     2.3771822166
  170      C       7.8022193452    -0.0071088482    -2.9402449045
  171      C       4.1987877743    -3.3545421327    -1.7462799468
  172      C       3.8377630556     2.0196877477    -3.5813680496
  173      C       7.5702456643     2.1184744679    -1.1614765728
  174      C       5.9967778077     1.1241504693    -4.0443953524
  175      C       6.5454128766    -0.7878334771     1.9602961426
  176      C       8.1488539864    -1.4700186137    -1.1586814217
 ----------------------------------------------------------------

    9   -5804.1866948595      9.86E-06 Convergence criterion met
 Total energy in the final basis set = -5804.1866948595

                    Orbital Energies (a.u.)
 --------------------------------------------------------------

 Alpha MOs
 -- Occupied --
-19.198 -19.194 -19.139 -19.129 -10.320 -10.314 -10.253 -10.252
-10.251 -10.247 -10.243 -10.240 -10.237 -10.236 -10.235 -10.231
-10.227 -10.226 -10.224 -10.223 -10.223 -10.222 -10.222 -10.222
-10.221 -10.220 -10.220 -10.220 -10.219 -10.219 -10.219 -10.219
-10.218 -10.218 -10.218 -10.218 -10.218 -10.217 -10.217 -10.216
-10.216 -10.216 -10.216 -10.216 -10.216 -10.216 -10.216 -10.216
-10.216 -10.216 -10.215 -10.215 -10.215 -10.215 -10.215 -10.215
-10.215 -10.215 -10.215 -10.214 -10.214 -10.214 -10.214 -10.214
-10.213 -10.213 -10.213 -10.213 -10.213 -10.213 -10.212 -10.212
-10.212 -10.212 -10.212 -10.212 -10.212 -10.212 -10.212 -10.212
-10.211 -10.211 -10.211 -10.211 -10.211 -10.211 -10.210 -10.210
-10.210 -10.210 -10.210 -10.209 -10.209 -10.209 -10.209 -10.209
-10.208 -10.208 -10.208 -10.208 -10.208 -10.208 -10.208 -10.208
-10.208 -10.207 -10.207 -10.207 -10.207 -10.207 -10.207 -10.207
-10.206 -10.206 -10.206 -10.206 -10.205 -10.205 -10.205 -10.204
-10.204 -10.204 -10.204 -10.204 -10.203 -10.203 -10.203 -10.202
-10.202 -10.201 -10.201 -10.201 -10.201 -10.200 -10.200 -10.199
-10.199 -10.198 -10.197 -10.197 -10.197 -10.196 -10.196 -10.196
-10.195 -10.195 -10.195 -10.195  -1.096  -1.082  -1.011  -1.009
 -0.986  -0.986  -0.971  -0.967  -0.964  -0.963  -0.961  -0.959
 -0.935  -0.935  -0.932  -0.929  -0.927  -0.926  -0.925  -0.923
 -0.919  -0.918  -0.901  -0.899  -0.892  -0.890  -0.885  -0.884
 -0.877  -0.874  -0.857  -0.853  -0.844  -0.842  -0.841  -0.839
 -0.837  -0.832  -0.823  -0.821  -0.806  -0.802  -0.801  -0.799
 -0.796  -0.795  -0.795  -0.794  -0.792  -0.790  -0.785  -0.781
 -0.772  -0.769  -0.768  -0.766  -0.766  -0.765  -0.764  -0.761
 -0.756  -0.749  -0.747  -0.740  -0.738  -0.731  -0.719  -0.718
 -0.714  -0.714  -0.713  -0.712  -0.712  -0.711  -0.710  -0.707
 -0.706  -0.706  -0.705  -0.703  -0.702  -0.699  -0.674  -0.672
 -0.662  -0.657  -0.656  -0.656  -0.651  -0.647  -0.632  -0.630
 -0.630  -0.626  -0.625  -0.625  -0.622  -0.621  -0.619  -0.616
 -0.616  -0.614  -0.613  -0.611  -0.611  -0.609  -0.608  -0.607
 -0.604  -0.604  -0.601  -0.600  -0.567  -0.566  -0.564  -0.563
 -0.562  -0.560  -0.558  -0.557  -0.557  -0.556  -0.553  -0.553
 -0.538  -0.537  -0.536  -0.529  -0.527  -0.527  -0.524  -0.524
 -0.523  -0.523  -0.521  -0.520  -0.516  -0.514  -0.513  -0.509
 -0.507  -0.506  -0.500  -0.499  -0.492  -0.490  -0.487  -0.486
 -0.486  -0.484  -0.483  -0.479  -0.478  -0.477  -0.476  -0.474
 -0.473  -0.470  -0.470  -0.469  -0.468  -0.467  -0.467  -0.466
 -0.465  -0.464  -0.462  -0.462  -0.461  -0.460  -0.459  -0.459
 -0.457  -0.456  -0.454  -0.451  -0.451  -0.448  -0.446  -0.444
 -0.442  -0.441  -0.440  -0.440  -0.437  -0.434  -0.433  -0.432
 -0.431  -0.430  -0.430  -0.428  -0.425  -0.424  -0.424  -0.423
 -0.423  -0.421  -0.420  -0.419  -0.419  -0.418  -0.417  -0.417
 -0.416  -0.416  -0.415  -0.415  -0.413  -0.413  -0.412  -0.412
 -0.411  -0.411  -0.410  -0.408  -0.405  -0.402  -0.401  -0.397
 -0.394  -0.392  -0.391  -0.389  -0.388  -0.387  -0.384  -0.382
 -0.380  -0.376  -0.375  -0.372  -0.371  -0.370  -0.369  -0.367
 -0.367  -0.364  -0.363  -0.360  -0.360  -0.359  -0.358  -0.358
 -0.357  -0.355  -0.355  -0.353  -0.352  -0.351  -0.350  -0.349
 -0.349  -0.348  -0.347  -0.346  -0.344  -0.343  -0.343  -0.342
 -0.341  -0.340  -0.339  -0.337  -0.336  -0.336  -0.335  -0.334
 -0.333  -0.331  -0.330  -0.328  -0.327  -0.326  -0.324  -0.322
 -0.314  -0.307  -0.303  -0.300  -0.290  -0.283  -0.272  -0.271
 -0.269  -0.269  -0.268  -0.266  -0.265  -0.265  -0.265  -0.263
 -0.262  -0.261  -0.259  -0.257  -0.256  -0.254  -0.253  -0.252
 -0.250  -0.248  -0.244  -0.241  -0.223  -0.220  -0.212  -0.209
 -0.208  -0.207  -0.206  -0.204  -0.199  -0.191

          Ground-State Mulliken Net Atomic Charges

     Atom                 Charge (a.u.)
  ----------------------------------------
      1 O                    -0.473958
      2 C                    -0.089622
      3 H                     0.142873
      4 H                     0.131262
      5 H                     0.123947
      6 O                    -0.479260
      7 C                     0.621227
      8 C                    -0.269164
      9 H                     0.109765
     10 H                     0.131661
     11 C                    -0.181206
     12 H                     0.117728
     13 H                     0.134999
     14 C                    -0.191128
     15 H                     0.106655
     16 H                     0.105828
     17 C                     0.005681
     18 C                     0.080382
     19 C                    -0.108702
     20 H                     0.094556
     21 C                    -0.091785
     22 H                     0.087292
     23 C                    -0.083566
     24 H                     0.094984
     25 C                    -0.096070
     26 H                     0.095685
     27 C                    -0.101373
     28 H                     0.101348
     29 C                    -0.037964
     30 C                     0.016802
     31 C                    -0.038426
     32 C                    -0.000028
     33 C                    -0.016516
     34 C                     0.011209
     35 C                    -0.013706
     36 C                     0.015742
     37 C                     0.032587
     38 C                     0.012750
     39 C                    -0.085631
     40 C                    -0.015719
     41 C                     0.004720
     42 C                     0.006447
     43 C                    -0.017086
     44 C                    -0.016414
     45 C                    -0.068745
     46 C                     0.020744
     47 C                    -0.003458
     48 C                     0.025397
     49 C                     0.033132
     50 C                    -0.026497
     51 C                     0.022046
     52 C                     0.025049
     53 C                     0.024796
     54 C                    -0.045400
     55 C                     0.007293
     56 C                     0.008552
     57 C                    -0.001004
     58 C                    -0.014419
     59 C                     0.003541
     60 C                     0.010968
     61 C                     0.007214
     62 C                    -0.020226
     63 C                     0.003443
     64 C                    -0.005465
     65 C                    -0.012630
     66 C                    -0.032598
     67 C                     0.019582
     68 C                    -0.014090
     69 C                    -0.000256
     70 C                     0.022458
     71 C                    -0.003948
     72 C                    -0.013074
     73 C                     0.037109
     74 C                    -0.018082
     75 C                     0.032837
     76 C                     0.009119
     77 C                     0.033457
     78 C                    -0.013230
     79 C                    -0.001177
     80 C                     0.011210
     81 C                     0.000655
     82 C                    -0.004497
     83 C                     0.013073
     84 C                    -0.020354
     85 C                    -0.029802
     86 C                     0.003027
     87 C                     0.012212
     88 C                    -0.023271
     89 O                    -0.478240
     90 C                    -0.098662
     91 H                     0.128257
     92 H                     0.132724
     93 H                     0.138662
     94 O                    -0.445835
     95 C                     0.582068
     96 C                    -0.242897
     97 H                     0.130059
     98 H                     0.116438
     99 C                    -0.185069
    100 H                     0.116862
    101 H                     0.120208
    102 C                    -0.181585
    103 H                     0.118739
    104 H                     0.110143
    105 C                     0.017830
    106 C                     0.067118
    107 C                    -0.108670
    108 H                     0.092464
    109 C                    -0.094044
    110 H                     0.079943
    111 C                    -0.066599
    112 H                     0.092599
    113 C                    -0.104665
    114 H                     0.089616
    115 C                    -0.099625
    116 H                     0.092076
    117 C                    -0.022389
    118 C                     0.040047
    119 C                     0.012148
    120 C                    -0.019581
    121 C                    -0.008748
    122 C                     0.023309
    123 C                     0.003095
    124 C                    -0.016643
    125 C                     0.009995
    126 C                    -0.026163
    127 C                    -0.084861
    128 C                    -0.008534
    129 C                    -0.012255
    130 C                    -0.018205
    131 C                    -0.016521
    132 C                     0.003493
    133 C                    -0.104403
    134 C                     0.022962
    135 C                     0.050900
    136 C                    -0.038747
    137 C                     0.006958
    138 C                     0.039459
    139 C                     0.005970
    140 C                     0.017092
    141 C                     0.021633
    142 C                     0.002537
    143 C                    -0.008635
    144 C                    -0.024989
    145 C                    -0.002907
    146 C                     0.027293
    147 C                     0.019248
    148 C                     0.020411
    149 C                    -0.024108
    150 C                     0.014725
    151 C                     0.016329
    152 C                     0.016361
    153 C                    -0.004640
    154 C                     0.032858
    155 C                    -0.019507
    156 C                     0.026840
    157 C                     0.011101
    158 C                     0.026965
    159 C                    -0.038997
    160 C                     0.021074
    161 C                    -0.025232
    162 C                    -0.030420
    163 C                    -0.034544
    164 C                     0.014310
    165 C                    -0.027282
    166 C                    -0.027766
    167 C                     0.006089
    168 C                     0.042035
    169 C                    -0.028695
    170 C                    -0.000956
    171 C                     0.002991
    172 C                    -0.010532
    173 C                     0.022666
    174 C                     0.002718
    175 C                     0.005740
    176 C                    -0.016506
  ----------------------------------------
  Sum of atomic charges =     0.000000

                    Cartesian Multipole Moments
 -----------------------------------------------------------------
    Charge (ESU x 10^10)
                 0.0000
    Dipole Moment (Debye)
         X       0.8407      Y      -0.8175      Z       4.3657
       Tot       4.5205
    Quadrupole Moments (Debye-Ang)
        XX    -815.2746     XY      19.0730     YY    -794.8635
        XZ      11.8124     YZ       8.2924     ZZ    -783.2512

 Total job time:  926.27s(wall), 8900.49s(cpu)
        *  Thank you very much for using Q-Chem.  Have a nice day.  *
