 Q-Chem 4.4, Q-Chem, Inc., Pleasanton, CA (2016)
 Q-Chem 4.4.2 for Intel X86 Linux

User input:
--------------------------------------------------------------
$comment
SP
$end

$rem
MEM_STATIC 5000
MEM_TOTAL 20000
JOBTYPE SP
EXCHANGE B3LYP
BASIS 6-31g(d,p)
$end

$molecule
0 1
O         -10.041000    -16.980000     13.764000
C          -9.293000    -16.152000     12.827000
H          -9.036000    -16.800000     11.980000
H          -8.307000    -15.828000     13.182000
H          -9.931000    -15.447000     12.279000
O         -11.770000    -17.207000     12.222000
C         -11.244000    -17.452000     13.286000
C         -11.985000    -18.373000     14.217000
H         -12.565000    -17.804000     14.954000
H         -11.323000    -18.974000     14.852000
C         -13.063000    -19.222000     13.468000
H         -13.753000    -18.589000     12.897000
H         -12.586000    -19.875000     12.727000
C         -13.896000    -20.039000     14.407000
H         -13.272000    -20.797000     14.895000
H         -14.198000    -19.332000     15.190000
C         -15.133000    -20.653000     13.740000
C         -16.157000    -19.585000     13.273000
C         -15.932000    -18.883000     12.027000
H         -15.055000    -19.036000     11.405000
C         -16.789000    -17.879000     11.622000
H         -16.415000    -17.458000     10.694000
C         -17.834000    -17.369000     12.514000
H         -18.391000    -16.460000     12.305000
C         -18.088000    -18.116000     13.668000
H         -18.781000    -17.637000     14.354000
C         -17.269000    -19.157000     14.090000
H         -17.379000    -19.662000     15.045000
C         -18.960000    -24.470000     13.856000
C         -18.643000    -24.102000     11.440000
C         -16.569000    -28.097000     10.638000
C         -14.581000    -25.597000     16.150000
C         -13.352000    -26.664000     10.835000
C         -18.642000    -23.567000     12.743000
C         -12.826000    -27.004000     14.342000
C         -18.463000    -27.601000     12.054000
C         -14.941000    -22.991000     10.845000
C         -13.598000    -24.921000     15.469000
C         -14.946000    -21.885000     12.921000
C         -13.745000    -23.231000     11.449000
C         -12.411000    -24.731000     13.516000
C         -12.751000    -27.509000     13.044000
C         -17.037000    -22.480000     11.683000
C         -14.563000    -28.528000     11.720000
C         -15.609000    -21.995000     14.217000
C         -15.034000    -22.961000     15.252000
C         -14.359000    -27.669000     10.692000
C         -16.678000    -28.062000     15.062000
C         -16.597000    -28.872000     12.953000
C         -17.866000    -28.290000     13.122000
C         -19.070000    -26.382000     12.330000
C         -16.044000    -23.724000     15.850000
C         -15.701000    -22.230000     11.670000
C         -18.822000    -25.522000     11.207000
C         -12.750000    -25.614000     14.598000
C         -17.653000    -23.417000     10.785000
C         -13.036000    -24.477000     11.196000
C         -16.834000    -25.964000     16.159000
C         -17.823000    -27.528000     10.826000
C         -13.663000    -22.697000     12.739000
C         -18.613000    -26.543000     14.654000
C         -12.410000    -25.199000     12.231000
C         -15.471000    -23.911000      9.964000
C         -14.415000    -28.600000     14.129000
C         -13.894000    -27.706000     15.053000
C         -14.814000    -25.124000      9.716000
C         -15.852000    -24.965000     16.361000
C         -13.807000    -23.649000     14.955000
C         -16.139000    -27.163000     15.943000
C         -17.005000    -22.513000     14.150000
C         -17.007000    -25.557000      9.662000
C         -13.086000    -23.507000     13.754000
C         -13.601000    -25.402000     10.307000
C         -18.093000    -25.672000     15.577000
C         -15.559000    -27.364000      9.962000
C         -19.212000    -25.817000     13.625000
C         -15.976000    -28.742000     11.728000
C         -16.822000    -24.164000      9.859000
C         -15.728000    -26.117000      9.447000
C         -17.683000    -22.632000     12.907000
C         -17.272000    -23.403000     15.181000
C         -15.821000    -28.769000     14.158000
C         -18.019000    -26.236000     10.318000
C         -12.517000    -26.602000     11.960000
C         -14.751000    -27.001000     15.998000
C         -13.795000    -28.453000     12.896000
C         -18.325000    -24.382000     15.087000
C         -17.896000    -27.765000     14.417000
O          -8.441000    -28.487000      2.646000
C          -7.691000    -28.938000      1.509000
H          -7.931000    -29.991000      1.317000
H          -6.621000    -28.708000      1.588000
H          -8.046000    -28.449000      0.594000
O          -7.533000    -29.970000      4.164000
C          -8.299000    -29.015000      3.924000
C          -9.296000    -28.388000      4.935000
H          -9.042000    -27.320000      4.930000
H          -9.017000    -28.737000      5.936000
C         -10.829000    -28.470000      4.580000
H         -11.036000    -28.178000      3.543000
H         -11.204000    -29.500000      4.570000
C         -11.503000    -27.401000      5.433000
H         -11.153000    -27.481000      6.469000
H         -11.148000    -26.391000      5.194000
C         -13.044000    -27.442000      5.392000
C         -13.612000    -28.564000      6.169000
C         -14.065000    -29.703000      5.489000
H         -14.130000    -29.842000      4.414000
C         -14.353000    -30.888000      6.166000
H         -14.622000    -31.769000      5.591000
C         -14.388000    -30.943000      7.585000
H         -14.622000    -31.846000      8.140000
C         -13.906000    -29.838000      8.287000
H         -13.896000    -29.852000      9.373000
C         -13.482000    -28.664000      7.584000
H         -12.922000    -27.883000      8.090000
C         -17.417000    -26.914000      2.199000
C         -18.205000    -26.141000      4.375000
C         -18.469000    -21.767000      3.250000
C         -13.211000    -24.309000      0.835000
C         -15.511000    -20.953000      4.742000
C         -17.438000    -27.050000      3.585000
C         -13.483000    -21.769000      1.898000
C         -19.133000    -23.747000      1.969000
C         -15.215000    -24.585000      6.553000
C         -12.533000    -23.968000      2.031000
C         -13.748000    -26.100000      5.483000
C         -14.078000    -23.878000      6.113000
C         -12.615000    -22.810000      3.958000
C         -14.279000    -20.909000      2.627000
C         -16.280000    -26.457000      5.506000
C         -16.682000    -20.621000      2.625000
C         -13.738000    -26.856000      4.145000
C         -13.123000    -26.203000      2.956000
C         -16.723000    -20.680000      4.054000
C         -16.398000    -23.381000     -0.269000
C         -17.700000    -21.967000      0.984000
C         -18.344000    -23.214000      0.917000
C         -19.036000    -25.117000      2.278000
C         -13.911000    -26.442000      1.803000
C         -15.130000    -25.869000      6.069000
C         -18.983000    -25.178000      3.677000
C         -12.616000    -22.663000      2.551000
C         -17.547000    -25.841000      5.557000
C         -14.218000    -22.473000      5.777000
C         -15.061000    -25.344000      0.010000
C         -19.148000    -23.008000      3.141000
C         -13.222000    -24.702000      5.471000
C         -17.464000    -25.420000      0.381000
C         -13.467000    -21.927000      4.708000
C         -16.496000    -23.878000      6.542000
C         -15.353000    -21.416000      0.749000
C         -14.101000    -22.105000      0.675000
C         -16.602000    -22.532000      6.223000
C         -13.861000    -25.557000      0.717000
C         -12.569000    -24.907000      3.082000
C         -15.166000    -24.011000     -0.364000
C         -15.015000    -27.397000      3.608000
C         -18.447000    -23.568000      5.429000
C         -12.541000    -24.173000      4.311000
C         -15.475000    -21.841000      5.807000
C         -16.218000    -26.142000      0.375000
C         -17.828000    -21.403000      4.426000
C         -18.176000    -25.955000      1.513000
C         -17.808000    -21.291000      2.171000
C         -17.643000    -24.513000      6.075000
C         -17.795000    -22.327000      5.526000
C         -16.248000    -27.163000      4.325000
C         -15.012000    -27.221000      2.164000
C         -16.540000    -22.058000      0.247000
C         -19.090000    -23.891000      4.197000
C         -14.280000    -20.972000      4.050000
C         -14.018000    -23.371000      0.133000
C         -15.483000    -20.666000      1.929000
C         -16.217000    -27.016000      1.513000
C         -17.525000    -24.077000      0.126000
$end

--------------------------------------------------------------

             Standard Nuclear Orientation (Angstroms)
    I     Atom           X                Y                Z
 ----------------------------------------------------------------
    1      O       6.0842513730    -5.6959616020     6.5476262896
    2      C       5.2170934549    -6.4833517866     7.4142928012
    3      H       4.2865625849    -5.9122309533     7.5205721200
    4      H       5.5584496798    -6.5708825376     8.4530474861
    5      H       4.7904842314    -7.3584544478     6.9077625427
    6      O       4.6149757866    -5.9920384501     4.7665306293
    7      C       5.6140684927    -5.5201588076     5.2644667374
    8      C       6.4637560503    -4.6416206141     4.3868080924
    9      H       7.2919622694    -5.2097073330     3.9455803299
   10      H       6.9879099788    -3.8523110368     4.9390064720
   11      C       5.6733201199    -4.1098336985     3.1473325113
   12      H       5.2178715660    -4.9273613395     2.5754538782
   13      H       4.8362338344    -3.4795200577     3.4713853848
   14      C       6.5480525479    -3.3486753675     2.1993978224
   15      H       6.9095102221    -2.4321754195     2.6805009248
   16      H       7.4244750825    -3.9937861381     2.0584807030
   17      C       5.8751314806    -3.0649072742     0.8508034036
   18      C       5.5918234694    -4.3549844926     0.0367233452
   19      C       4.4294375768    -5.1560079856     0.3579170564
   20      H       3.7502950080    -4.9234954905     1.1728558952
   21      C       4.1915251492    -6.3448453527    -0.3028048150
   22      H       3.3031976436    -6.8039141058     0.1196062676
   23      C       5.1896874919    -6.9219597475    -1.2074593972
   24      H       5.1196250628    -7.9376034947    -1.5866295895
   25      C       6.2569086160    -6.0941941715    -1.5681313027
   26      H       7.0294165458    -6.6020521998    -2.1387430109
   27      C       6.5091415923    -4.8741894489    -0.9512901541
   28      H       7.4008872082    -4.2808588266    -1.1298917476
   29      C       5.7239716984    -0.0410287340    -3.6282794595
   30      C       3.3568063973    -0.6486448845    -3.3115776264
   31      C       1.9776161250     3.5264225058    -2.0580420347
   32      C       7.6430899055     2.1617550051     0.5157445639
   33      C       2.1834284085     2.7520990109     1.3769909242
   34      C       4.7129226368    -1.0036942882    -3.1740143102
   35      C       5.5933192354     3.6278483786     1.9219978910
   36      C       3.5362908806     2.8722175149    -3.7845578430
   37      C       2.7143192201    -1.1201771928     0.5170014193
   38      C       6.9996909467     1.5986831270     1.5909254045
   39      C       4.9057378827    -1.9341879325     0.7779760565
   40      C       3.2242667931    -0.5874899678     1.6611298182
   41      C       5.0264979001     1.3848990358     2.7398742994
   42      C       4.2419453651     3.9684038919     1.8648611692
   43      C       3.7118632286    -1.9001252326    -1.4203080568
   44      C       2.8978613127     4.4563886713    -0.1426223090
   45      C       6.2108052909    -1.7848608431     0.1409631207
   46      C       7.0920874968    -0.6050845163     0.5489772045
   47      C       1.9715315517     3.5262767170     0.1936602006
   48      C       6.3736440778     4.0358414742    -2.0403628667
   49      C       4.1812390742     4.5713406389    -2.1712939351
   50      C       4.4824559866     3.7903871487    -3.3013496937
   51      C       3.9868451837     1.6070540665    -4.1408558488
   52      C       7.6441002082     0.0271697657    -0.5714733697
   53      C       3.6618797655    -1.8975172408    -0.0619782545
   54      C       2.9642335060     0.6720248302    -3.7637369233
   55      C       6.0102679279     2.3202315896     2.2679807242
   56      C       2.7399154223    -1.2158741046    -2.2271208329
   57      C       2.7881494569     0.7258343235     2.1130003471
   58      C       7.7211249999     2.1025165836    -1.7648650768
   59      C       2.2953563732     2.7633393711    -3.1753451557
   60      C       4.5633041486    -0.9281947318     1.8776459243
   61      C       6.2487696087     2.1448477054    -3.6610414078
   62      C       3.6961750085     1.6773321555     2.6175065150
   63      C       1.7569478932    -0.4343691812    -0.2017255897
   64      C       5.2702757288     4.8609724234     0.0531602889
   65      C       6.2676105234     4.2043071078     0.7592530383
   66      C       1.3323639286     0.8377920357     0.2055289932
   67      C       7.9920550835     1.3370652824    -0.6056368011
   68      C       6.6533389286     0.2550468864     1.6142263134
   69      C       7.3280410460     3.3721643307    -1.3168007918
   70      C       6.1522959159    -1.5476699992    -1.3293926718
   71      C       1.3369939022     0.8459633288    -2.0304418907
   72      C       5.4433924413     0.0974064540     2.3167823551
   73      C       1.8240040837     1.4090015392     1.3587608263
   74      C       7.2424007433     1.5102793489    -2.9603345009
   75      C       1.3446641130     2.9134591344    -0.9453818639
   76      C       5.3458169381     1.1952260221    -4.1381295898
   77      C       2.9510795637     4.4037823717    -1.5697976294
   78      C       1.6903289145    -0.4518734212    -1.5784937304
   79      C       0.9923083955     1.6014747299    -0.8876118839
   80      C       4.9396449379    -1.7158967535    -2.0505524077
   81      C       7.0810419997    -0.5986586666    -1.7333211339
   82      C       5.3493682908     4.7684952689    -1.3580201895
   83      C       1.9567022696     1.4033925451    -3.1353198061
   84      C       3.2643500480     2.9899529677     2.2382271894
   85      C       7.3322971574     3.4788265563     0.0776231234
   86      C       4.0342763263     4.6756453715     0.6566976621
   87      C       6.9231618663     0.1478963122    -2.9555385971
   88      C       5.8309966968     3.4383107346    -3.1963251650
   89      O      -6.4015549973     4.3958911280     5.6310452725
   90      C      -7.6207252803     4.8295718772     6.2508959228
   91      H      -7.9255040260     5.7865654991     5.8098220925
   92      H      -7.5685300613     4.8140426616     7.3468318254
   93      H      -8.4513715221     4.1706625594     5.9711883399
   94      O      -5.1202075374     6.2027280452     6.2803264458
   95      C      -5.2049812023     5.0995412000     5.7039817482
   96      C      -4.0771908922     4.4324973597     4.8718756663
   97      H      -3.9666373003     3.4383824642     5.3242897220
   98      H      -3.1406436866     4.9518581117     5.1059413429
   99      C      -4.3620006106     4.1827592443     3.3423815349
  100      H      -5.3447046629     3.7277058770     3.1671640171
  101      H      -4.4767835479     5.1154901225     2.7780562864
  102      C      -3.3540067059     3.1248437856     2.9071698963
  103      H      -2.3540162078     3.3997377745     3.2630466990
  104      H      -3.4875018767     2.1761598238     3.4414205679
  105      C      -3.3221626053     2.8736858984     1.3860030189
  106      C      -2.6579969250     3.9605376354     0.6357535597
  107      C      -3.4462503394     4.8996247704    -0.0437329431
  108      H      -4.5255301971     4.8860146371    -0.1626478411
  109      C      -2.9028673104     6.0870620484    -0.5338610842
  110      H      -3.5652714340     6.8222835750    -0.9808701264
  111      C      -1.5007915309     6.3149784680    -0.5408334713
  112      H      -1.0472135732     7.2221225030    -0.9275462020
  113      C      -0.6962658706     5.4172024254     0.1612275228
  114      H       0.3783075188     5.5710854234     0.1973392048
  115      C      -1.2735813773     4.2624000823     0.7820329305
  116      H      -0.7062202552     3.6698057711     1.4937423792
  117      C      -6.2048738073     1.1410891653    -2.8901221764
  118      C      -3.9149634032     0.5190180124    -3.4582654874
  119      C      -4.4917870142    -3.9350943080    -2.9147997949
  120      C      -7.4557004189    -0.7906043719     1.6969193392
  121      C      -3.0633290175    -3.9893284239     0.1827783579
  122      C      -4.8459490168     1.4463195264    -2.8996531983
  123      C      -6.0830159932    -3.1804416692     1.9418033113
  124      C      -5.9663329843    -2.2923125501    -3.9774565025
  125      C      -1.7188337309    -0.1648268187    -0.1697565989
  126      C      -6.2629861653    -0.8446710348     2.4590810709
  127      C      -3.0353876542     1.4471088326     0.9529914686
  128      C      -2.1272974686    -0.6988235650     1.0688808985
  129      C      -4.2091854806    -1.7426192408     2.6504152462
  130      C      -5.2169394027    -4.0731534515     1.3437782174
  131      C      -2.9282537729     1.3281517763    -1.5991397095
  132      C      -5.0636060780    -4.7998162024    -0.9596555538
  133      C      -4.4533018148     2.0150688830     0.7832245276
  134      C      -5.5846514619     1.3414031965     1.4793405516
  135      C      -3.6517943873    -4.5678412272    -0.9730107427
  136      C      -8.2787331349    -2.4267181215    -1.2834695527
  137      C      -6.8011568351    -3.8863154284    -2.2586377331
  138      C      -6.9850029064    -2.7993194082    -3.1297716344
  139      C      -5.8293796681    -0.9000912946    -4.1347897953
  140      C      -6.7169546177     1.2811593683     0.6297911154
  141      C      -2.3571994475     1.0403241225    -0.3436457035
  142      C      -4.4522753991    -0.6525518966    -4.0570782855
  143      C      -5.5865051166    -2.0653247442     2.6398901204
  144      C      -2.7400495003     0.4994051084    -2.7239081800
  145      C      -2.2846570152    -2.1365646330     1.1899577102
  146      C      -8.3050439347    -0.2304930644    -0.3375931123
  147      C      -4.7147966112    -2.8657894226    -3.8202592262
  148      C      -2.9058051120     0.1810291078     1.7349598153
  149      C      -7.8256032941    -0.5549640073    -2.7003629444
  150      C      -3.3167117806    -2.6654538772     2.0023720927
  151      C      -1.5804688937    -1.0927365430    -1.2925966211
  152      C      -7.0858917371    -4.0177164307     0.1432146380
  153      C      -7.3049143157    -3.1235562766     1.2387545637
  154      C      -1.7297674593    -2.4645174840    -1.1489303820
  155      C      -7.6899311049     0.2897540531     0.8183468270
  156      C      -5.3319008156     0.1974860866     2.2730525626
  157      C      -8.5104860077    -1.5964305717    -0.1968867484
  158      C      -4.9865520472     2.2368548816    -0.5872623057
  159      C      -2.5487461140    -1.8985539747    -3.1778996449
  160      C      -4.0266103924    -0.3558784373     2.4730165960
  161      C      -2.1158547361    -2.9817216233     0.0774881815
  162      C      -7.9808666283     0.3789015038    -1.6151788567
  163      C      -3.3142812630    -4.0209835613    -2.1851038020
  164      C      -6.7317229075    -0.0215294112    -3.4707305394
  165      C      -5.5376424304    -4.4137502919    -2.2042979318
  166      C      -2.0621359026    -0.7463250802    -2.5515322791
  167      C      -2.3362779140    -2.9743969526    -2.2992568557
  168      C      -4.1856041657     1.8714822403    -1.7336127426
  169      C      -6.3972747027     1.8819206362    -0.5893289160
  170      C      -7.6010920111    -3.6763652220    -1.1572410629
  171      C      -3.7767504829    -1.8601198239    -3.9032478964
  172      C      -3.8135666564    -3.8306249980     1.3687558905
  173      C      -7.9985240390    -1.9437053901     1.0647820446
  174      C      -5.8193247265    -4.6222260924     0.1898630746
  175      C      -6.9575737778     1.3756766627    -1.7502048722
  176      C      -7.9140676551    -1.9073182560    -2.5113998713
 ----------------------------------------------------------------

    9   -5804.2703485955      8.75E-06 Convergence criterion met
 Total energy in the final basis set = -5804.2703485955

                    Orbital Energies (a.u.)
 --------------------------------------------------------------

 Alpha MOs
 -- Occupied --
-19.203 -19.186 -19.142 -19.134 -10.323 -10.322 -10.249 -10.245
-10.242 -10.241 -10.240 -10.240 -10.237 -10.237 -10.229 -10.229
-10.227 -10.226 -10.226 -10.225 -10.225 -10.224 -10.224 -10.223
-10.223 -10.222 -10.222 -10.222 -10.221 -10.221 -10.221 -10.221
-10.221 -10.221 -10.221 -10.220 -10.220 -10.220 -10.220 -10.220
-10.219 -10.219 -10.219 -10.219 -10.219 -10.219 -10.219 -10.219
-10.218 -10.218 -10.218 -10.218 -10.218 -10.218 -10.217 -10.217
-10.217 -10.217 -10.217 -10.217 -10.217 -10.216 -10.216 -10.216
-10.216 -10.216 -10.216 -10.216 -10.216 -10.216 -10.216 -10.215
-10.215 -10.215 -10.215 -10.215 -10.215 -10.215 -10.214 -10.214
-10.214 -10.214 -10.214 -10.214 -10.214 -10.214 -10.214 -10.214
-10.213 -10.213 -10.213 -10.213 -10.213 -10.213 -10.212 -10.212
-10.212 -10.212 -10.212 -10.212 -10.212 -10.212 -10.212 -10.212
-10.212 -10.211 -10.211 -10.211 -10.211 -10.211 -10.211 -10.211
-10.211 -10.211 -10.211 -10.211 -10.211 -10.211 -10.210 -10.210
-10.210 -10.210 -10.209 -10.209 -10.209 -10.209 -10.209 -10.209
-10.208 -10.208 -10.208 -10.207 -10.206 -10.206 -10.206 -10.206
-10.206 -10.203 -10.203 -10.202 -10.200 -10.200 -10.200 -10.200
-10.198 -10.197 -10.196 -10.189  -1.096  -1.076  -1.022  -0.993
 -0.985  -0.982  -0.969  -0.965  -0.964  -0.961  -0.961  -0.959
 -0.937  -0.934  -0.928  -0.926  -0.925  -0.924  -0.923  -0.923
 -0.922  -0.920  -0.900  -0.897  -0.891  -0.890  -0.886  -0.886
 -0.877  -0.874  -0.850  -0.850  -0.842  -0.839  -0.838  -0.838
 -0.836  -0.834  -0.825  -0.823  -0.808  -0.806  -0.800  -0.798
 -0.796  -0.796  -0.794  -0.793  -0.791  -0.790  -0.783  -0.781
 -0.775  -0.769  -0.768  -0.766  -0.766  -0.766  -0.763  -0.760
 -0.754  -0.747  -0.742  -0.741  -0.736  -0.734  -0.718  -0.716
 -0.714  -0.714  -0.713  -0.712  -0.711  -0.710  -0.709  -0.709
 -0.708  -0.707  -0.705  -0.705  -0.702  -0.700  -0.675  -0.671
 -0.660  -0.657  -0.656  -0.656  -0.650  -0.649  -0.634  -0.631
 -0.628  -0.627  -0.626  -0.626  -0.624  -0.623  -0.620  -0.619
 -0.615  -0.615  -0.613  -0.611  -0.611  -0.610  -0.608  -0.606
 -0.604  -0.603  -0.601  -0.598  -0.568  -0.568  -0.566  -0.563
 -0.563  -0.562  -0.560  -0.559  -0.558  -0.557  -0.554  -0.551
 -0.537  -0.535  -0.533  -0.532  -0.530  -0.527  -0.526  -0.525
 -0.524  -0.523  -0.522  -0.519  -0.518  -0.516  -0.516  -0.513
 -0.512  -0.507  -0.503  -0.495  -0.494  -0.489  -0.487  -0.487
 -0.485  -0.484  -0.479  -0.479  -0.478  -0.478  -0.476  -0.475
 -0.473  -0.473  -0.472  -0.471  -0.469  -0.467  -0.466  -0.466
 -0.465  -0.464  -0.464  -0.462  -0.461  -0.460  -0.459  -0.458
 -0.457  -0.454  -0.454  -0.451  -0.450  -0.449  -0.446  -0.443
 -0.441  -0.440  -0.440  -0.438  -0.438  -0.437  -0.433  -0.433
 -0.432  -0.431  -0.428  -0.427  -0.427  -0.426  -0.425  -0.424
 -0.423  -0.422  -0.422  -0.421  -0.420  -0.419  -0.419  -0.418
 -0.417  -0.416  -0.416  -0.415  -0.414  -0.413  -0.413  -0.412
 -0.412  -0.411  -0.410  -0.408  -0.402  -0.401  -0.399  -0.397
 -0.394  -0.392  -0.391  -0.390  -0.390  -0.389  -0.386  -0.385
 -0.384  -0.378  -0.375  -0.372  -0.371  -0.370  -0.367  -0.366
 -0.365  -0.364  -0.363  -0.362  -0.361  -0.360  -0.359  -0.358
 -0.358  -0.356  -0.356  -0.355  -0.354  -0.353  -0.352  -0.351
 -0.350  -0.349  -0.348  -0.346  -0.345  -0.345  -0.344  -0.343
 -0.341  -0.341  -0.340  -0.338  -0.338  -0.336  -0.335  -0.333
 -0.333  -0.331  -0.330  -0.330  -0.328  -0.327  -0.326  -0.325
 -0.312  -0.312  -0.303  -0.293  -0.290  -0.287  -0.277  -0.274
 -0.271  -0.270  -0.268  -0.268  -0.266  -0.264  -0.263  -0.262
 -0.262  -0.261  -0.260  -0.259  -0.258  -0.257  -0.256  -0.253
 -0.248  -0.246  -0.245  -0.242  -0.224  -0.222  -0.213  -0.211
 -0.210  -0.208  -0.207  -0.207  -0.199  -0.198

          Ground-State Mulliken Net Atomic Charges

     Atom                 Charge (a.u.)
  ----------------------------------------
      1 O                    -0.478495
      2 C                    -0.101757
      3 H                     0.123878
      4 H                     0.131404
      5 H                     0.141693
      6 O                    -0.464024
      7 C                     0.630642
      8 C                    -0.283613
      9 H                     0.135599
     10 H                     0.122769
     11 C                    -0.171896
     12 H                     0.130430
     13 H                     0.103400
     14 C                    -0.179463
     15 H                     0.104611
     16 H                     0.102059
     17 C                     0.014659
     18 C                     0.060370
     19 C                    -0.108037
     20 H                     0.110270
     21 C                    -0.092397
     22 H                     0.093822
     23 C                    -0.089822
     24 H                     0.100691
     25 C                    -0.091621
     26 H                     0.091673
     27 C                    -0.096872
     28 H                     0.095768
     29 C                     0.006359
     30 C                     0.004336
     31 C                     0.007498
     32 C                    -0.024791
     33 C                    -0.000935
     34 C                    -0.013088
     35 C                    -0.005733
     36 C                     0.023693
     37 C                     0.043978
     38 C                     0.033463
     39 C                    -0.077948
     40 C                    -0.019590
     41 C                    -0.033881
     42 C                    -0.008345
     43 C                    -0.007959
     44 C                     0.008793
     45 C                    -0.111119
     46 C                     0.005329
     47 C                    -0.021107
     48 C                    -0.006181
     49 C                    -0.009772
     50 C                    -0.019731
     51 C                    -0.006799
     52 C                     0.023886
     53 C                     0.049674
     54 C                    -0.007649
     55 C                    -0.002965
     56 C                    -0.026943
     57 C                    -0.012055
     58 C                     0.025444
     59 C                    -0.014348
     60 C                     0.023320
     61 C                    -0.003152
     62 C                     0.021169
     63 C                     0.033635
     64 C                     0.004025
     65 C                    -0.020373
     66 C                     0.022169
     67 C                    -0.022406
     68 C                     0.000448
     69 C                     0.002106
     70 C                     0.049666
     71 C                     0.008031
     72 C                    -0.003838
     73 C                    -0.022487
     74 C                    -0.003415
     75 C                     0.025431
     76 C                    -0.004907
     77 C                    -0.005190
     78 C                    -0.028819
     79 C                    -0.004893
     80 C                     0.023841
     81 C                    -0.000597
     82 C                     0.000107
     83 C                     0.012212
     84 C                    -0.027771
     85 C                     0.000577
     86 C                     0.014273
     87 C                    -0.029861
     88 C                     0.014152
     89 O                    -0.470190
     90 C                    -0.074067
     91 H                     0.125711
     92 H                     0.127172
     93 H                     0.121720
     94 O                    -0.474827
     95 C                     0.570351
     96 C                    -0.246095
     97 H                     0.127823
     98 H                     0.137396
     99 C                    -0.178061
    100 H                     0.125173
    101 H                     0.122934
    102 C                    -0.190947
    103 H                     0.110166
    104 H                     0.112800
    105 C                     0.006322
    106 C                     0.094209
    107 C                    -0.100161
    108 H                     0.092359
    109 C                    -0.099706
    110 H                     0.088484
    111 C                    -0.081785
    112 H                     0.093710
    113 C                    -0.091070
    114 H                     0.093237
    115 C                    -0.112364
    116 H                     0.090958
    117 C                     0.043634
    118 C                    -0.005904
    119 C                     0.016306
    120 C                    -0.010721
    121 C                     0.008176
    122 C                    -0.022391
    123 C                     0.033498
    124 C                    -0.014879
    125 C                    -0.014229
    126 C                    -0.001744
    127 C                    -0.104605
    128 C                     0.012954
    129 C                    -0.018651
    130 C                    -0.003580
    131 C                     0.032666
    132 C                    -0.007186
    133 C                    -0.081848
    134 C                     0.025885
    135 C                    -0.025782
    136 C                     0.002611
    137 C                     0.018651
    138 C                    -0.010384
    139 C                    -0.016292
    140 C                     0.025686
    141 C                     0.053033
    142 C                     0.016546
    143 C                    -0.016586
    144 C                    -0.023710
    145 C                    -0.003855
    146 C                    -0.011694
    147 C                    -0.002280
    148 C                     0.027619
    149 C                    -0.019388
    150 C                    -0.024713
    151 C                     0.013956
    152 C                    -0.031042
    153 C                     0.007521
    154 C                    -0.004799
    155 C                    -0.010303
    156 C                     0.013720
    157 C                     0.022417
    158 C                    -0.003632
    159 C                    -0.008708
    160 C                    -0.009230
    161 C                     0.016988
    162 C                    -0.022584
    163 C                     0.013782
    164 C                    -0.010966
    165 C                     0.018159
    166 C                    -0.008379
    167 C                    -0.013916
    168 C                     0.016806
    169 C                    -0.013213
    170 C                    -0.015611
    171 C                     0.002661
    172 C                    -0.009928
    173 C                    -0.005796
    174 C                     0.008594
    175 C                    -0.006756
    176 C                     0.027456
  ----------------------------------------
  Sum of atomic charges =     0.000000

                    Cartesian Multipole Moments
 -----------------------------------------------------------------
    Charge (ESU x 10^10)
                 0.0000
    Dipole Moment (Debye)
         X       1.5640      Y      -2.7708      Z       1.6947
       Tot       3.6050
    Quadrupole Moments (Debye-Ang)
        XX    -786.4091     XY     -20.7815     YY    -803.8623
        XZ       6.8833     YZ     -26.2961     ZZ    -804.0976

 Total job time:  867.91s(wall), 8170.75s(cpu)
        *  Thank you very much for using Q-Chem.  Have a nice day.  *
