 Q-Chem 4.4, Q-Chem, Inc., Pleasanton, CA (2016)
 Q-Chem 4.4.2 for Intel X86 Linux

User input:
--------------------------------------------------------------
$comment
SP
$end

$rem
MEM_STATIC 5000
MEM_TOTAL 20000
JOBTYPE SP
EXCHANGE B3LYP
BASIS 6-31g(d,p)
$end

$molecule
0 1
C          25.281000     -8.944000     -1.888000
C          24.557000     -7.782000     -2.334000
N          25.079000     -9.472000     -0.663000
C          23.825000     -7.107000     -1.328000
C          24.287000     -8.884000      0.264000
C          23.578000     -7.726000     -0.089000
C          22.666000     -7.001000      0.958000
C          23.109000     -6.627000      2.197000
C          21.306000     -6.845000      0.760000
N          22.335000     -5.996000      3.133000
N          20.666000     -7.173000     -0.371000
C          20.469000     -6.203000      1.666000
C          21.009000     -5.809000      2.922000
S          19.128000     -6.759000     -0.219000
N          19.159000     -6.032000      1.244000
C          20.148000     -5.375000      4.019000
S          18.502000     -5.839000      4.196000
C          20.623000     -4.788000      5.147000
C          18.585000     -5.624000      5.939000
S          22.159000     -4.004000      5.327000
C          19.774000     -4.906000      6.235000
C          17.629000     -6.040000      6.911000
C          21.817000     -4.041000      7.079000
C          20.509000     -4.491000      7.415000
N          16.529000     -6.608000      6.463000
S          17.650000     -5.837000      8.670000
C          15.574000     -6.779000      7.441000
C          16.053000     -6.601000      8.736000
C          26.335000     -9.594000     -2.718000
H          24.611000     -7.519000     -3.386000
H          23.277000     -6.216000     -1.621000
H          24.178000     -9.364000      1.235000
H          24.176000     -6.680000      2.412000
H          22.599000     -3.684000      7.736000
H          20.172000     -4.720000      8.419000
H          14.566000     -7.148000      7.311000
H          15.542000     -6.745000      9.679000
H          26.217000    -10.671000     -2.541000
C          27.796000     -9.193000     -2.351000
H          26.010000     -9.449000     -3.755000
H          28.155000     -9.585000     -1.392000
H          27.789000     -8.096000     -2.378000
C          28.807000     -9.690000     -3.341000
H          28.995000    -10.758000     -3.174000
C          30.173000     -8.985000     -3.099000
H          28.594000     -9.483000     -4.397000
H          30.598000     -9.376000     -2.166000
H          29.947000     -7.916000     -3.006000
C          31.132000     -9.416000     -4.214000
H          31.087000    -10.511000     -4.271000
C          32.621000     -8.918000     -4.117000
H          30.655000     -9.143000     -5.164000
H          33.034000     -9.047000     -3.108000
H          32.649000     -7.869000     -4.434000
H          33.317000     -9.447000     -4.779000
C          20.427000     -7.850000     12.766000
C          20.678000     -6.695000     11.960000
N          21.167000     -8.982000     12.719000
C          21.859000     -6.651000     11.176000
C          22.244000     -8.915000     11.863000
C          22.605000     -7.832000     11.101000
C          23.782000     -7.771000     10.176000
C          23.798000     -6.955000      9.043000
C          24.889000     -8.610000     10.338000
N          24.861000     -6.824000      8.216000
N          25.048000     -9.489000     11.277000
C          25.998000     -8.613000      9.449000
C          25.942000     -7.723000      8.323000
S          26.480000    -10.243000     11.026000
N          26.867000     -9.558000      9.633000
C          26.896000     -7.522000      7.242000
S          28.495000     -8.178000      7.247000
C          26.767000     -6.655000      6.129000
C          29.073000     -7.186000      5.852000
S          25.316000     -5.931000      5.474000
C          27.972000     -6.425000      5.454000
C          30.380000     -7.191000      5.258000
C          26.424000     -5.132000      4.305000
C          27.773000     -5.470000      4.397000
N          31.177000     -8.132000      5.761000
S          31.112000     -6.160000      4.102000
C          32.494000     -7.807000      5.463000
C          32.664000     -6.682000      4.667000
C          19.196000     -7.819000     13.645000
H          20.068000     -5.797000     11.958000
H          22.210000     -5.734000     10.712000
H          22.807000     -9.836000     11.718000
H          23.056000     -6.196000      8.799000
H          25.935000     -4.603000      3.498000
H          28.584000     -5.117000      3.771000
H          33.295000     -8.435000      5.830000
H          33.579000     -6.320000      4.218000
H          18.297000     -7.514000     13.096000
C          19.362000     -6.680000     14.732000
H          19.056000     -8.750000     14.207000
H          19.481000     -5.724000     14.207000
H          20.377000     -6.675000     15.149000
C          18.337000     -6.818000     15.914000
H          17.338000     -7.058000     15.529000
C          18.283000     -5.598000     16.825000
H          18.611000     -7.610000     16.622000
H          17.603000     -5.786000     17.664000
H          18.003000     -4.696000     16.267000
C          19.614000     -5.239000     17.549000
H          20.098000     -6.105000     18.016000
C          19.343000     -4.260000     18.744000
H          20.321000     -4.684000     16.920000
H          18.639000     -4.745000     19.431000
H          18.935000     -3.276000     18.478000
H          20.275000     -3.954000     19.235000
$end

--------------------------------------------------------------

             Standard Nuclear Orientation (Angstroms)
    I     Atom           X                Y                Z
 ----------------------------------------------------------------
    1      C       7.6154816732     2.4606817918    -1.5014292882
    2      C       7.5003413341     3.4694583616    -0.4804255985
    3      N       6.5245305097     1.9058438508    -2.0690501282
    4      C       6.1981349763     3.6469969642     0.0451442317
    5      C       5.2670517274     2.1628135709    -1.6388749602
    6      C       5.0811741633     3.1092905478    -0.6201086164
    7      C       3.6456687177     3.4229109060    -0.0773891800
    8      C       2.7861431123     2.4510654317     0.3561752417
    9      C       3.0919640998     4.6876479504    -0.1610037994
   10      N       1.5260077863     2.6944128432     0.8317527828
   11      N       3.7529095484     5.7737903126    -0.5850213497
   12      C       1.8234731026     5.0011393576     0.3146249715
   13      C       0.9978400860     3.9420493756     0.7847638148
   14      S       2.7835995555     7.0394983881    -0.4495030657
   15      N       1.4843083886     6.3446615101     0.2568277184
   16      C      -0.4241127014     4.1446621236     1.0494982949
   17      S      -1.3816455299     5.3610383708     0.3015004957
   18      C      -1.1944269543     3.2354212062     1.6994789915
   19      C      -2.8396499275     4.4009092219     0.5101585748
   20      S      -0.6294326812     1.9683651423     2.7395282222
   21      C      -2.5465247882     3.3532570460     1.4230460656
   22      C      -4.1186130995     4.6266662165    -0.0772620447
   23      C      -2.2901169066     1.3226751046     2.6252947825
   24      C      -3.2085697266     2.1742713152     1.9489159601
   25      N      -4.2517538421     5.7018522154    -0.8253105795
   26      S      -5.6211613580     3.7082081773     0.1085189042
   27      C      -5.5601398545     5.9588847519    -1.1714468503
   28      C      -6.4286265178     4.8990875296    -0.9250513081
   29      C       8.9329194928     1.9243412494    -1.9475373627
   30      H       8.3945249624     4.0184463583    -0.2014330925
   31      H       6.0719856348     4.3886255360     0.8287942844
   32      H       4.4350739429     1.6714095233    -2.1403298715
   33      H       3.1628877455     1.4372527143     0.4894803627
   34      H      -2.4780143916     0.3725764127     3.1076110800
   35      H      -4.2123588965     1.8922766971     1.6541069747
   36      H      -5.9355967535     6.8176243696    -1.7106345596
   37      H      -7.4795832259     4.8071324594    -1.1661742286
   38      H       8.8306880854     1.7743391622    -3.0302331248
   39      C       9.3391244125     0.5659772259    -1.2995745992
   40      H       9.6296166769     2.7654175550    -1.8515025683
   41      H       8.7513263016    -0.2978660443    -1.6319812557
   42      H       9.2471399325     0.7440984838    -0.2206868975
   43      C      10.7545157699     0.1722441385    -1.6010237016
   44      H      10.8186913974    -0.2271274526    -2.6209456697
   45      C      11.1866630639    -0.9967775642    -0.6692608697
   46      H      11.5191846257     0.9386141710    -1.4240702776
   47      H      10.6550877370    -1.9019341265    -0.9888141041
   48      H      10.8820003275    -0.7029603387     0.3423408578
   49      C      12.6744561781    -1.2714122055    -0.9136262990
   50      H      12.8105371749    -1.3613323255    -1.9988430212
   51      C      13.3145046760    -2.4964556698    -0.1625334746
   52      H      13.2054365838    -0.3307652309    -0.7192013056
   53      H      12.6856256188    -3.3940293012    -0.2270602727
   54      H      13.4916781312    -2.2011761212     0.8781843329
   55      H      14.2912644883    -2.8047564965    -0.5541862156
   56      C      -7.4518180747    -1.0704154559    -1.4259406611
   57      C      -6.7546321007    -0.6878234235    -0.2367320779
   58      N      -6.9130077336    -1.8275648499    -2.4096282190
   59      C      -5.4807041445    -1.2547677551     0.0221784997
   60      C      -5.6342888187    -2.2661336663    -2.1456408520
   61      C      -4.9100459609    -2.0091868714    -1.0084053321
   62      C      -3.5202521795    -2.4957787425    -0.7320421723
   63      C      -2.6331377694    -1.7925317068     0.0854372648
   64      C      -2.9980421596    -3.6282229943    -1.3648776261
   65      N      -1.3927892999    -2.2255077017     0.4096693765
   66      N      -3.6232835267    -4.3843380590    -2.2116398370
   67      C      -1.6676063327    -4.0861897052    -1.1638353360
   68      C      -0.8313108824    -3.3157623784    -0.2862456517
   69      S      -2.5904877149    -5.5579995356    -2.6994846377
   70      N      -1.2768530558    -5.0464582549    -1.9430902295
   71      C       0.5609290815    -3.5131732902     0.0902843137
   72      S       1.4532017814    -4.9477762637    -0.2743055069
   73      C       1.3506327851    -2.6918717737     0.9322646457
   74      C       2.8365364195    -4.5507253716     0.8178981683
   75      S       1.0799374990    -1.0275613531     1.3963733463
   76      C       2.5256447039    -3.3097406287     1.3773883014
   77      C       4.0195835917    -5.3305879412     1.0488175498
   78      C       2.5661447564    -1.2211291628     2.3895226256
   79      C       3.2225614131    -2.4468257966     2.2931175698
   80      N       4.1018242280    -6.3987376911     0.2576212469
   81      S       5.2760593887    -5.1831125300     2.2040840016
   82      C       5.0053765290    -7.2959580733     0.8121542262
   83      C       5.6550743463    -6.8552220427     1.9574862730
   84      C      -8.8399324332    -0.5010815633    -1.6207750689
   85      H      -7.1606442190    -0.0472025769     0.5399706263
   86      H      -4.9977267891    -1.1709408387     0.9912460527
   87      H      -5.1255812507    -2.7930228001    -2.9517670524
   88      H      -2.8881828531    -0.9335528302     0.7045400793
   89      H       2.9435672681    -0.3091918022     2.8323922430
   90      H       4.1390012401    -2.7433295988     2.7895342685
   91      H       5.1733694817    -8.2504612081     0.3311384951
   92      H       6.4743643064    -7.3310149146     2.4792669781
   93      H      -8.8715694517     0.5851138515    -1.4731078080
   94      C      -9.7918281191    -1.0506809881    -0.4813536915
   95      H      -9.2951401160    -0.8152362495    -2.5675051248
   96      H      -9.3814582244    -0.7349253413     0.4859192385
   97      H      -9.6193943713    -2.1194593028    -0.3021372948
   98      C     -11.3130298384    -0.8382160038    -0.8093734462
   99      H     -11.4804814722     0.1664135847    -1.2174241050
  100      C     -12.2379639900    -1.0990652952     0.3728665727
  101      H     -11.6913541775    -1.5558443133    -1.5479425384
  102      H     -13.2839148007    -1.0010038826     0.0597597841
  103      H     -12.0012156532    -0.4398935663     1.2171478392
  104      C     -12.1979621360    -2.5435150728     0.9530240442
  105      H     -12.2552417883    -3.3200185696     0.1809732940
  106      C     -13.4521187597    -2.8077377059     1.8570066564
  107      H     -11.3534469812    -2.7223499309     1.6300227494
  108      H     -14.3514010997    -2.6520002441     1.2488560862
  109      H     -13.5379470315    -2.1840953929     2.7565508594
  110      H     -13.4161004037    -3.8028708746     2.3171736420
 ----------------------------------------------------------------

   10   -5663.4928123467      2.87E-06 Convergence criterion met
 Total energy in the final basis set = -5663.4928123467

                    Orbital Energies (a.u.)
 --------------------------------------------------------------

 Alpha MOs
 -- Occupied --
-88.990 -88.983 -88.930 -88.926 -88.926 -88.919 -88.915 -88.912
-14.388 -14.381 -14.376 -14.371 -14.349 -14.346 -14.340 -14.339
-14.334 -14.325 -10.269 -10.267 -10.265 -10.263 -10.253 -10.252
-10.250 -10.247 -10.244 -10.243 -10.239 -10.239 -10.237 -10.235
-10.233 -10.233 -10.232 -10.232 -10.231 -10.229 -10.229 -10.228
-10.228 -10.228 -10.225 -10.219 -10.218 -10.218 -10.218 -10.217
-10.215 -10.213 -10.211 -10.209 -10.207 -10.207 -10.205 -10.203
-10.187 -10.186 -10.184 -10.184 -10.183 -10.181 -10.181 -10.179
-10.176 -10.176 -10.175 -10.172  -8.046  -8.039  -7.992  -7.987
 -7.985  -7.978  -7.975  -7.970  -6.011  -6.005  -6.005  -6.004
 -5.999  -5.997  -5.956  -5.952  -5.951  -5.949  -5.949  -5.947
 -5.946  -5.944  -5.942  -5.942  -5.939  -5.939  -5.936  -5.935
 -5.935  -5.931  -5.931  -5.927  -1.055  -1.040  -0.968  -0.966
 -0.954  -0.941  -0.931  -0.931  -0.920  -0.918  -0.905  -0.901
 -0.848  -0.839  -0.831  -0.830  -0.811  -0.810  -0.807  -0.806
 -0.804  -0.798  -0.795  -0.795  -0.784  -0.782  -0.770  -0.763
 -0.750  -0.746  -0.744  -0.738  -0.728  -0.716  -0.711  -0.710
 -0.696  -0.696  -0.676  -0.674  -0.656  -0.651  -0.646  -0.645
 -0.636  -0.634  -0.629  -0.619  -0.609  -0.607  -0.600  -0.597
 -0.595  -0.592  -0.584  -0.581  -0.576  -0.575  -0.574  -0.562
 -0.545  -0.543  -0.541  -0.540  -0.526  -0.524  -0.517  -0.513
 -0.509  -0.503  -0.500  -0.498  -0.493  -0.486  -0.482  -0.480
 -0.479  -0.474  -0.472  -0.472  -0.467  -0.466  -0.454  -0.448
 -0.442  -0.442  -0.441  -0.438  -0.436  -0.435  -0.433  -0.429
 -0.426  -0.425  -0.424  -0.422  -0.419  -0.414  -0.412  -0.412
 -0.411  -0.406  -0.404  -0.403  -0.403  -0.400  -0.396  -0.395
 -0.392  -0.391  -0.389  -0.389  -0.389  -0.387  -0.387  -0.380
 -0.376  -0.375  -0.373  -0.369  -0.367  -0.364  -0.361  -0.359
 -0.356  -0.354  -0.353  -0.351  -0.346  -0.343  -0.343  -0.340
 -0.338  -0.334  -0.332  -0.331  -0.328  -0.327  -0.325  -0.324
 -0.320  -0.315  -0.311  -0.307  -0.306  -0.304  -0.302  -0.300
 -0.296  -0.293  -0.291  -0.290  -0.284  -0.280  -0.278  -0.277
 -0.274  -0.273  -0.265  -0.262  -0.257  -0.252  -0.249  -0.247
 -0.244  -0.240  -0.235  -0.231  -0.194  -0.190

          Ground-State Mulliken Net Atomic Charges

     Atom                 Charge (a.u.)
  ----------------------------------------
      1 C                     0.257479
      2 C                    -0.109547
      3 N                    -0.475297
      4 C                    -0.073015
      5 C                     0.080403
      6 C                     0.034797
      7 C                     0.001064
      8 C                     0.048313
      9 C                     0.250811
     10 N                    -0.535334
     11 N                    -0.535030
     12 C                     0.174017
     13 C                     0.292718
     14 S                     0.613431
     15 N                    -0.559111
     16 C                    -0.202730
     17 S                     0.368204
     18 C                    -0.106477
     19 C                    -0.218898
     20 S                     0.301108
     21 C                     0.129320
     22 C                     0.073320
     23 C                    -0.289559
     24 C                    -0.106506
     25 N                    -0.438922
     26 S                     0.253044
     27 C                     0.121551
     28 C                    -0.307880
     29 C                    -0.221469
     30 H                     0.096437
     31 H                     0.103404
     32 H                     0.114011
     33 H                     0.115330
     34 H                     0.133836
     35 H                     0.112677
     36 H                     0.120187
     37 H                     0.136399
     38 H                     0.118228
     39 C                    -0.162337
     40 H                     0.090168
     41 H                     0.116164
     42 H                     0.090236
     43 C                    -0.179881
     44 H                     0.097362
     45 C                    -0.170108
     46 H                     0.089032
     47 H                     0.091213
     48 H                     0.089810
     49 C                    -0.180008
     50 H                     0.093232
     51 C                    -0.324265
     52 H                     0.088652
     53 H                     0.103449
     54 H                     0.105758
     55 H                     0.102032
     56 C                     0.278543
     57 C                    -0.122550
     58 N                    -0.493283
     59 C                    -0.091494
     60 C                     0.073971
     61 C                     0.086705
     62 C                     0.059861
     63 C                     0.040127
     64 C                     0.239989
     65 N                    -0.517316
     66 N                    -0.576481
     67 C                     0.206447
     68 C                     0.282468
     69 S                     0.587003
     70 N                    -0.536339
     71 C                    -0.236027
     72 S                     0.346239
     73 C                    -0.122263
     74 C                    -0.214399
     75 S                     0.334978
     76 C                     0.136422
     77 C                     0.051084
     78 C                    -0.322660
     79 C                    -0.077452
     80 N                    -0.423907
     81 S                     0.280874
     82 C                     0.111632
     83 C                    -0.314874
     84 C                    -0.231110
     85 H                     0.091442
     86 H                     0.102953
     87 H                     0.120346
     88 H                     0.105605
     89 H                     0.126598
     90 H                     0.111551
     91 H                     0.116716
     92 H                     0.136887
     93 H                     0.108254
     94 C                    -0.193494
     95 H                     0.119837
     96 H                     0.088920
     97 H                     0.108072
     98 C                    -0.177611
     99 H                     0.090242
    100 C                    -0.169674
    101 H                     0.100719
    102 H                     0.087964
    103 H                     0.091609
    104 C                    -0.178500
    105 H                     0.096832
    106 C                    -0.326423
    107 H                     0.096060
    108 H                     0.100933
    109 H                     0.099380
    110 H                     0.097773
  ----------------------------------------
  Sum of atomic charges =     0.000000

                    Cartesian Multipole Moments
 -----------------------------------------------------------------
    Charge (ESU x 10^10)
                 0.0000
    Dipole Moment (Debye)
         X       1.4886      Y       0.7370      Z       3.6585
       Tot       4.0180
    Quadrupole Moments (Debye-Ang)
        XX    -390.3565     XY     -12.6221     YY    -431.0373
        XZ       8.3456     YZ      -8.7967     ZZ    -450.8702

 Total job time:  93.91s(wall), 1012.71s(cpu)
        *  Thank you very much for using Q-Chem.  Have a nice day.  *
