 Q-Chem 4.4, Q-Chem, Inc., Pleasanton, CA (2016)
 Q-Chem 4.4.2 for Intel X86 Linux

User input:
--------------------------------------------------------------
$comment
SP
$end

$rem
MEM_STATIC 5000
MEM_TOTAL 20000
JOBTYPE SP
EXCHANGE B3LYP
BASIS 6-31g(d,p)
$end

$molecule
0 1
C          -9.384000    -14.784000     -6.480000
C          -8.765000    -14.155000     -5.389000
N         -10.680000    -15.144000     -6.307000
C          -9.412000    -13.866000     -4.186000
C         -11.386000    -14.804000     -5.199000
C         -10.773000    -14.186000     -4.054000
C         -11.498000    -13.966000     -2.777000
C         -10.867000    -14.191000     -1.546000
C         -12.914000    -13.660000     -2.630000
N         -11.463000    -14.056000     -0.346000
N         -13.727000    -13.460000     -3.679000
C         -13.477000    -13.464000     -1.402000
C         -12.717000    -13.628000     -0.228000
S         -15.100000    -13.048000     -2.994000
N         -14.748000    -12.943000     -1.411000
C         -13.248000    -13.394000      1.125000
S         -14.826000    -13.764000      1.699000
C         -12.404000    -13.005000      2.129000
C         -14.388000    -13.413000      3.375000
S         -10.782000    -12.473000      2.003000
C         -13.078000    -12.957000      3.351000
C         -15.101000    -13.810000      4.573000
C         -10.948000    -12.227000      3.820000
C         -12.173000    -12.557000      4.363000
N         -14.500000    -13.714000      5.722000
S         -16.634000    -14.579000      4.497000
C         -15.411000    -14.245000      6.706000
C         -16.592000    -14.650000      6.269000
C          -8.641000    -15.172000     -7.747000
H          -7.715000    -13.918000     -5.531000
H          -8.889000    -13.327000     -3.402000
H         -12.347000    -15.309000     -5.116000
H          -9.827000    -14.513000     -1.571000
H         -10.036000    -11.856000      4.268000
H         -12.381000    -12.414000      5.417000
H         -15.130000    -14.233000      7.751000
H         -17.438000    -15.032000      6.825000
H          -7.923000    -15.980000     -7.558000
C          -7.944000    -13.961000     -8.409000
H          -9.432000    -15.534000     -8.415000
H          -7.633000    -14.207000     -9.432000
H          -7.032000    -13.695000     -7.860000
C          -8.835000    -12.708000     -8.379000
H          -9.798000    -12.944000     -8.848000
C          -8.271000    -11.507000     -9.123000
H          -9.064000    -12.413000     -7.347000
H          -9.041000    -10.727000     -9.179000
H          -7.973000    -11.745000    -10.151000
C          -7.040000    -10.792000     -8.571000
H          -6.177000    -11.466000     -8.510000
C          -7.286000    -10.140000     -7.238000
H          -6.735000     -9.998000     -9.264000
H          -6.363000     -9.762000     -6.780000
H          -7.712000    -10.844000     -6.512000
H          -7.949000     -9.278000     -7.385000
C         -16.766000     -9.696000      2.170000
C         -16.982000     -8.511000      2.822000
N         -16.948000    -10.913000      2.774000
C         -17.558000     -8.473000      4.085000
C         -17.483000    -10.884000      3.992000
C         -17.820000     -9.726000      4.742000
C         -18.573000     -9.740000      6.040000
C         -19.515000     -8.714000      6.235000
C         -18.510000    -10.721000      7.020000
N         -20.343000     -8.689000      7.274000
N         -17.728000    -11.804000      7.050000
C         -19.324000    -10.610000      8.164000
C         -20.207000     -9.520000      8.296000
S         -17.978000    -12.566000      8.440000
N         -19.074000    -11.569000      9.053000
C         -21.222000     -9.401000      9.296000
S         -21.423000    -10.519000     10.673000
C         -22.066000     -8.305000      9.520000
C         -22.530000     -9.415000     11.489000
S         -22.306000     -6.815000      8.706000
C         -22.657000     -8.276000     10.796000
C         -23.200000     -9.663000     12.732000
C         -23.207000     -6.151000     10.092000
C         -23.309000     -7.043000     11.105000
N         -23.002000    -10.875000     13.283000
S         -23.864000     -8.545000     13.906000
C         -23.537000    -11.008000     14.562000
C         -23.913000     -9.814000     15.091000
C         -16.207000     -9.816000      0.795000
H         -16.678000     -7.602000      2.312000
H         -17.832000     -7.533000      4.555000
H         -17.611000    -11.901000      4.359000
H         -19.776000     -8.024000      5.433000
H         -23.624000     -5.160000      9.972000
H         -23.875000     -6.772000     11.988000
H         -23.519000    -11.946000     15.100000
H         -24.311000     -9.670000     16.086000
H         -16.078000     -8.791000      0.424000
C         -17.326000    -10.329000     -0.256000
H         -15.249000    -10.350000      0.814000
H         -18.317000     -9.943000      0.015000
H         -17.359000    -11.418000     -0.135000
C         -16.988000     -9.924000     -1.742000
H         -16.801000     -8.844000     -1.731000
C         -18.095000    -10.263000     -2.762000
H         -16.029000    -10.400000     -1.979000
H         -19.087000     -9.956000     -2.408000
H         -18.199000    -11.352000     -2.843000
C         -17.668000     -9.716000     -4.153000
H         -18.508000     -9.869000     -4.842000
C         -16.531000    -10.414000     -4.876000
H         -17.533000     -8.629000     -4.111000
H         -16.805000    -11.423000     -5.208000
H         -15.688000    -10.531000     -4.185000
H         -16.108000     -9.875000     -5.733000
$end

--------------------------------------------------------------

             Standard Nuclear Orientation (Angstroms)
    I     Atom           X                Y                Z
 ----------------------------------------------------------------
    1      C     -11.8016669318    -0.7884669503     0.7895799398
    2      C     -11.1635182643    -1.2829320939    -0.3581802704
    3      N     -10.9917772458    -0.4214788728     1.8135640448
    4      C      -9.7778661165    -1.3811179952    -0.4984181189
    5      C      -9.6396254507    -0.4042631520     1.6991562561
    6      C      -8.9567131315    -0.9312745098     0.5482401892
    7      C      -7.4798508496    -1.0721148058     0.4866300333
    8      C      -6.8909125340    -2.2090047819    -0.0832645559
    9      C      -6.5019550084    -0.1887074982     1.1059944272
   10      N      -5.5645527193    -2.4343170042    -0.1419590555
   11      N      -6.8459287320     0.9332288871     1.7573858801
   12      C      -5.1608098389    -0.4063702332     0.9743829979
   13      C      -4.6798579473    -1.5422123968     0.2951776850
   14      S      -5.4413685933     1.5791245118     2.1236203116
   15      N      -4.3515517281     0.6231482861     1.3892997710
   16      C      -3.2496607627    -1.8180668056     0.0812469524
   17      S      -1.9594747654    -1.5181994560     1.1775861632
   18      C      -2.8526719778    -2.5452328108    -1.0074690370
   19      C      -0.7992736434    -2.4075458065     0.1840986568
   20      S      -3.7788601593    -2.9987506677    -2.3735879944
   21      C      -1.4801075123    -2.7975761107    -0.9599964462
   22      C       0.4955290946    -2.9191490802     0.5877444916
   23      C      -2.1813676405    -3.7076401527    -2.9524267893
   24      C      -1.1093572606    -3.5544551369    -2.0970309182
   25      N       1.0938625895    -3.7853719175    -0.1753236739
   26      S       1.1660462951    -2.5626447008     2.1273994241
   27      C       2.3050741285    -4.1658894193     0.5090088757
   28      C       2.5517968489    -3.5679763539     1.6628645276
   29      C     -13.3111757567    -0.7731295899     0.9599614907
   30      H     -11.8310620836    -1.6152664710    -1.1473393868
   31      H      -9.3479365211    -1.7211348632    -1.4355707598
   32      H      -9.1185773187    -0.2648846885     2.6449456027
   33      H      -7.5601661233    -2.9656670294    -0.4900456721
   34      H      -2.2726029024    -4.1894226675    -3.9166107631
   35      H      -0.1191729120    -3.9055371077    -2.3633116079
   36      H       2.9864896543    -4.8607765809     0.0357914690
   37      H       3.4095080753    -3.6592125405     2.3161511494
   38      H     -13.7137938736    -1.7899316272     1.0500795743
   39      C     -14.0190840960    -0.0003823262    -0.1768328837
   40      H     -13.4636553503    -0.2341233112     1.9029202411
   41      H     -15.0615652283     0.2112786912     0.0918652784
   42      H     -14.0482714306    -0.6046210162    -1.0922260807
   43      C     -13.2617298310     1.2864065049    -0.5447717662
   44      H     -13.1339118669     1.8954893270     0.3583930493
   45      C     -13.9617188291     2.1672436581    -1.5685756108
   46      H     -12.2497275074     1.0582461976    -0.9029395638
   47      H     -13.4278679520     3.1232579549    -1.6425749705
   48      H     -14.9993784911     2.3937853325    -1.2962278634
   49      C     -14.0883457318     1.6857720455    -3.0119884810
   50      H     -14.6518048923     0.7469826328    -3.0748710153
   51      C     -12.7603544148     1.5426739049    -3.7037044518
   52      H     -14.6740205154     2.4107673290    -3.5908467423
   53      H     -12.8485425839     1.0543141714    -4.6826347953
   54      H     -12.0631369234     0.9243924995    -3.1242358388
   55      H     -12.3454793084     2.5433201086    -3.8792260203
   56      C       0.2580216220     1.9510073284    -0.7148670223
   57      C       1.1188955938     2.5023334737    -1.6264154226
   58      N       0.6257105332     0.9286550775     0.1209737159
   59      C       2.4668865963     2.1691738818    -1.6441338732
   60      C       1.9126543179     0.5913477202     0.0966952929
   61      C       2.9160449316     1.1380514569    -0.7467235240
   62      C       4.3832618164     0.8471405524    -0.6256679229
   63      C       5.2609021707     1.9247358770    -0.8415399335
   64      C       4.9563736227    -0.3499627080    -0.2191994229
   65      N       6.5698819133     1.8365473967    -0.6305308690
   66      N       4.3399183514    -1.4980893097     0.0759297095
   67      C       6.3572756421    -0.4445312337    -0.1088213181
   68      C       7.1624238801     0.6768104891    -0.3908533296
   69      S       5.4596662585    -2.5997277577     0.4042608756
   70      N       6.7550891792    -1.6794091780     0.1900479715
   71      C       8.5633677545     0.7714116135    -0.1210517583
   72      S       9.5803216054    -0.5839369590     0.4404543522
   73      C       9.4213007720     1.8271789945    -0.4572573126
   74      C      11.0643451951     0.3054651417     0.0987543545
   75      S       9.1742509283     3.3665320935    -1.1711581540
   76      C      10.7866179344     1.4892764455    -0.4626344285
   77      C      12.3978481605    -0.1549197997     0.3542314516
   78      C      10.9190695616     3.5547383081    -1.4775555390
   79      C      11.6285393045     2.4872966171    -1.0422878971
   80      N      12.5080187551    -1.3498521462     0.9639429630
   81      S      13.9201257937     0.3169121137    -0.3731896458
   82      C      13.8145696799    -1.8259979660     1.0411753344
   83      C      14.6692324018    -1.1179337864     0.2569242590
   84      C      -1.1850816674     2.2984867192    -0.5956320891
   85      H       0.7015353143     3.2068774016    -2.3393146096
   86      H       3.1702056646     2.6865213247    -2.2900981999
   87      H       2.0956611300    -0.2031550813     0.8182462648
   88      H       4.8904238421     2.9425237305    -0.9610334197
   89      H      11.2392459295     4.4940405598    -1.9083320163
   90      H      12.7080318617     2.5028509489    -1.1313939116
   91      H      14.0662224038    -2.7371700508     1.5665783592
   92      H      15.7201748409    -1.3352562721     0.1248033792
   93      H      -1.3704176776     3.0998309815    -1.3225467584
   94      C      -1.4860456366     3.1164107813     0.7683150938
   95      H      -1.8108525736     1.4230532447    -0.8084888593
   96      H      -0.6355523817     3.7589527577     1.0296941903
   97      H      -1.5675350303     2.3535079575     1.5512517197
   98      C      -2.7975533230     3.9866030483     0.6725131783
   99      H      -2.6992192903     4.5912324921    -0.2364662789
  100      C      -3.0489134734     4.8962253069     1.8932405932
  101      H      -3.6188852777     3.2840377570     0.4874676932
  102      H      -2.1455415202     5.4434672504     2.1900138557
  103      H      -3.2522238213     4.2781217243     2.7763662149
  104      C      -4.3089846165     5.7619374139     1.6118471634
  105      H      -4.4126059826     6.4758715704     2.4384611196
  106      C      -5.6618119310     5.0745074546     1.6124023363
  107      H      -4.1549552741     6.3826954510     0.7216267294
  108      H      -5.9555369248     4.7328500613     2.6125907454
  109      H      -5.6072240471     4.1802160564     0.9806729179
  110      H      -6.4923903279     5.6550110131     1.1916243128
 ----------------------------------------------------------------

   10   -5663.5319730599      5.09E-06 Convergence criterion met
 Total energy in the final basis set = -5663.5319730599

                    Orbital Energies (a.u.)
 --------------------------------------------------------------

 Alpha MOs
 -- Occupied --
-88.988 -88.986 -88.930 -88.920 -88.917 -88.915 -88.908 -88.902
-14.389 -14.384 -14.377 -14.370 -14.344 -14.341 -14.340 -14.335
-14.327 -14.322 -10.269 -10.262 -10.257 -10.255 -10.254 -10.249
-10.248 -10.248 -10.238 -10.237 -10.236 -10.234 -10.230 -10.230
-10.230 -10.230 -10.229 -10.228 -10.228 -10.227 -10.225 -10.223
-10.222 -10.220 -10.220 -10.219 -10.218 -10.216 -10.216 -10.214
-10.212 -10.210 -10.206 -10.206 -10.199 -10.198 -10.191 -10.190
-10.190 -10.186 -10.181 -10.180 -10.180 -10.179 -10.177 -10.175
-10.174 -10.173 -10.173 -10.169  -8.044  -8.043  -7.991  -7.978
 -7.977  -7.977  -7.969  -7.962  -6.009  -6.007  -6.003  -6.002
 -6.002  -6.001  -5.955  -5.951  -5.947  -5.943  -5.941  -5.941
 -5.939  -5.938  -5.938  -5.935  -5.934  -5.934  -5.933  -5.929
 -5.926  -5.925  -5.923  -5.918  -1.053  -1.046  -0.966  -0.962
 -0.961  -0.960  -0.933  -0.931  -0.917  -0.914  -0.908  -0.903
 -0.848  -0.837  -0.832  -0.832  -0.812  -0.812  -0.807  -0.802
 -0.801  -0.799  -0.799  -0.792  -0.786  -0.785  -0.768  -0.767
 -0.750  -0.749  -0.741  -0.741  -0.727  -0.714  -0.713  -0.711
 -0.695  -0.693  -0.678  -0.671  -0.656  -0.654  -0.647  -0.644
 -0.639  -0.636  -0.625  -0.620  -0.617  -0.609  -0.598  -0.597
 -0.595  -0.585  -0.584  -0.582  -0.576  -0.574  -0.568  -0.550
 -0.548  -0.547  -0.542  -0.539  -0.527  -0.522  -0.516  -0.507
 -0.505  -0.503  -0.499  -0.497  -0.488  -0.485  -0.479  -0.478
 -0.472  -0.469  -0.467  -0.464  -0.463  -0.458  -0.457  -0.454
 -0.444  -0.443  -0.440  -0.437  -0.437  -0.435  -0.434  -0.431
 -0.429  -0.428  -0.427  -0.424  -0.419  -0.415  -0.413  -0.412
 -0.409  -0.408  -0.407  -0.403  -0.401  -0.399  -0.397  -0.396
 -0.394  -0.393  -0.393  -0.391  -0.386  -0.385  -0.382  -0.378
 -0.376  -0.373  -0.371  -0.369  -0.368  -0.358  -0.355  -0.353
 -0.352  -0.351  -0.349  -0.347  -0.345  -0.343  -0.341  -0.341
 -0.337  -0.336  -0.336  -0.332  -0.328  -0.325  -0.322  -0.318
 -0.316  -0.316  -0.313  -0.307  -0.305  -0.303  -0.300  -0.298
 -0.297  -0.293  -0.288  -0.287  -0.282  -0.281  -0.275  -0.271
 -0.270  -0.270  -0.268  -0.266  -0.257  -0.252  -0.251  -0.245
 -0.243  -0.234  -0.233  -0.228  -0.193  -0.191

          Ground-State Mulliken Net Atomic Charges

     Atom                 Charge (a.u.)
  ----------------------------------------
      1 C                     0.277763
      2 C                    -0.119681
      3 N                    -0.488394
      4 C                    -0.077900
      5 C                     0.090004
      6 C                     0.022438
      7 C                     0.050365
      8 C                     0.050029
      9 C                     0.198300
     10 N                    -0.514137
     11 N                    -0.520576
     12 C                     0.169723
     13 C                     0.270426
     14 S                     0.618504
     15 N                    -0.541046
     16 C                    -0.204752
     17 S                     0.334265
     18 C                    -0.081924
     19 C                    -0.224004
     20 S                     0.251591
     21 C                     0.134606
     22 C                     0.107228
     23 C                    -0.302407
     24 C                    -0.043276
     25 N                    -0.463164
     26 S                     0.252962
     27 C                     0.122823
     28 C                    -0.293066
     29 C                    -0.230483
     30 H                     0.082788
     31 H                     0.105784
     32 H                     0.114960
     33 H                     0.109476
     34 H                     0.119056
     35 H                     0.130284
     36 H                     0.108846
     37 H                     0.131607
     38 H                     0.115249
     39 C                    -0.186445
     40 H                     0.125094
     41 H                     0.099611
     42 H                     0.095278
     43 C                    -0.175459
     44 H                     0.100483
     45 C                    -0.174713
     46 H                     0.105345
     47 H                     0.085937
     48 H                     0.084814
     49 C                    -0.176943
     50 H                     0.087094
     51 C                    -0.313021
     52 H                     0.091160
     53 H                     0.095587
     54 H                     0.100332
     55 H                     0.101810
     56 C                     0.261684
     57 C                    -0.117943
     58 N                    -0.473558
     59 C                    -0.082290
     60 C                     0.079349
     61 C                     0.032482
     62 C                     0.038473
     63 C                     0.053907
     64 C                     0.250438
     65 N                    -0.512351
     66 N                    -0.567166
     67 C                     0.181913
     68 C                     0.327749
     69 S                     0.591989
     70 N                    -0.559434
     71 C                    -0.233542
     72 S                     0.356855
     73 C                    -0.107216
     74 C                    -0.221422
     75 S                     0.271576
     76 C                     0.121448
     77 C                     0.049974
     78 C                    -0.319196
     79 C                    -0.048143
     80 N                    -0.439712
     81 S                     0.274972
     82 C                     0.125643
     83 C                    -0.313994
     84 C                    -0.229923
     85 H                     0.086939
     86 H                     0.102277
     87 H                     0.118765
     88 H                     0.115934
     89 H                     0.135289
     90 H                     0.121362
     91 H                     0.120953
     92 H                     0.135689
     93 H                     0.084287
     94 C                    -0.187626
     95 H                     0.133263
     96 H                     0.090033
     97 H                     0.124015
     98 C                    -0.176706
     99 H                     0.087545
    100 C                    -0.180587
    101 H                     0.099699
    102 H                     0.095359
    103 H                     0.091593
    104 C                    -0.177106
    105 H                     0.088986
    106 C                    -0.321046
    107 H                     0.094153
    108 H                     0.105173
    109 H                     0.103062
    110 H                     0.105904
  ----------------------------------------
  Sum of atomic charges =     0.000000

                    Cartesian Multipole Moments
 -----------------------------------------------------------------
    Charge (ESU x 10^10)
                 0.0000
    Dipole Moment (Debye)
         X       2.6354      Y       1.2178      Z      -2.2228
       Tot       3.6564
    Quadrupole Moments (Debye-Ang)
        XX    -359.0841     XY       0.7074     YY    -432.9108
        XZ      10.3708     YZ      -5.2129     ZZ    -440.7664

 Total job time:  102.86s(wall), 1122.23s(cpu)
        *  Thank you very much for using Q-Chem.  Have a nice day.  *
