 Q-Chem 4.4, Q-Chem, Inc., Pleasanton, CA (2016)
 Q-Chem 4.4.2 for Intel X86 Linux

User input:
--------------------------------------------------------------
$comment
SP
$end

$rem
MEM_STATIC 5000
MEM_TOTAL 20000
JOBTYPE SP
EXCHANGE B3LYP
BASIS 6-31g(d,p)
$end

$molecule
0 1
C           3.248000     -4.052000     -9.660000
C           3.530000     -3.363000     -8.483000
N           2.340000     -3.639000    -10.539000
C           2.804000     -2.187000     -8.279000
C           1.680000     -2.500000    -10.296000
C           1.799000     -1.624000     -9.181000
C           1.128000     -0.300000     -9.096000
C           1.871000      0.805000     -8.610000
C          -0.222000     -0.059000     -9.558000
N           1.325000      2.004000     -8.474000
N          -1.038000     -0.994000    -10.077000
C          -0.706000      1.221000     -9.376000
C           0.060000      2.259000     -8.852000
S          -2.450000     -0.222000    -10.441000
N          -1.994000      1.212000     -9.851000
C          -0.534000      3.624000     -8.667000
S          -2.220000      4.053000     -9.005000
C           0.170000      4.689000     -8.194000
C          -1.788000      5.782000     -8.944000
S           1.723000      4.680000     -7.343000
C          -0.523000      5.882000     -8.333000
C          -2.613000      6.881000     -9.127000
C           1.541000      6.458000     -7.376000
C           0.343000      6.961000     -7.931000
N          -3.793000      6.505000     -9.549000
S          -2.379000      8.613000     -8.813000
C          -4.429000      7.605000     -9.958000
C          -3.797000      8.795000     -9.747000
C           3.915000     -5.470000     -9.778000
H           4.187000     -3.778000     -7.724000
H           2.940000     -1.580000     -7.389000
H           0.986000     -2.164000    -11.065000
H           2.823000      0.674000     -8.098000
H           2.452000      6.940000     -7.046000
H           0.121000      8.020000     -8.000000
H          -5.410000      7.492000    -10.401000
H          -4.099000      9.786000    -10.059000
H           4.857000     -5.376000    -10.334000
C           3.057000     -6.585000    -10.301000
H           4.197000     -5.778000     -8.764000
H           2.473000     -6.459000    -11.221000
H           2.305000     -6.755000     -9.522000
C           3.955000     -7.834000    -10.518000
H           4.609000     -7.637000    -11.377000
C           3.101000     -9.123000    -10.919000
H           4.512000     -8.078000     -9.605000
H           2.396000     -9.008000    -11.752000
H           2.439000     -9.292000    -10.061000
C           4.025000    -10.357000    -11.145000
H           4.897000     -9.907000    -11.635000
C           3.376000    -11.431000    -12.054000
H           4.415000    -10.847000    -10.244000
H           2.967000    -11.079000    -13.009000
H           2.529000    -11.731000    -11.424000
H           4.034000    -12.302000    -12.160000
C           8.111000     18.327000     -7.223000
C           6.856000     17.759000     -7.459000
N           9.054000     17.483000     -6.760000
C           6.429000     16.479000     -7.091000
C           8.666000     16.236000     -6.415000
C           7.338000     15.606000     -6.576000
C           6.970000     14.180000     -6.374000
C           5.933000     13.913000     -5.547000
C           7.667000     13.161000     -6.971000
N           5.461000     12.693000     -5.328000
N           8.703000     13.276000     -7.830000
C           7.147000     11.816000     -6.867000
C           6.000000     11.634000     -5.971000
S           8.966000     11.698000     -8.381000
N           7.826000     10.901000     -7.625000
C           5.338000     10.314000     -5.740000
S           5.965000      8.753000     -6.273000
C           4.227000     10.074000     -4.926000
C           4.618000      7.831000     -5.506000
S           3.105000     11.272000     -4.325000
C           3.828000      8.714000     -4.870000
C           4.384000      6.489000     -5.478000
C           1.973000      9.895000     -3.995000
C           2.547000      8.632000     -4.221000
N           5.002000      5.858000     -6.411000
S           3.572000      5.504000     -4.246000
C           4.982000      4.496000     -6.197000
C           4.221000      4.070000     -5.182000
C           8.588000     19.778000     -7.482000
H           6.059000     18.416000     -7.795000
H           5.376000     16.255000     -7.237000
H           9.496000     15.677000     -5.985000
H           5.312000     14.687000     -5.098000
H           1.066000     10.091000     -3.439000
H           2.071000      7.682000     -4.003000
H           5.597000      3.869000     -6.829000
H           4.117000      3.103000     -4.709000
H           9.254000     19.902000     -8.345000
C           9.151000     20.386000     -6.143000
H           7.640000     20.284000     -7.704000
H          10.171000     20.025000     -5.964000
H           8.485000     20.145000     -5.304000
C           9.200000     21.944000     -6.140000
H           8.169000     22.313000     -6.204000
C           9.999000     22.634000     -7.277000
H           9.427000     22.388000     -5.163000
H           9.781000     22.060000     -8.186000
H          11.077000     22.496000     -7.129000
C           9.588000     24.145000     -7.367000
H          10.033000     24.534000     -8.291000
C           9.915000     25.048000     -6.085000
H           8.511000     24.285000     -7.524000
H          10.984000     25.236000     -5.923000
H           9.562000     24.518000     -5.192000
H           9.466000     26.049000     -6.075000
$end

--------------------------------------------------------------

             Standard Nuclear Orientation (Angstroms)
    I     Atom           X                Y                Z
 ----------------------------------------------------------------
    1      C     -10.6728960203     3.0356495361     0.4759987401
    2      C      -9.7653134330     3.1544334147    -0.5736479803
    3      N     -10.6751047950     2.0050473594     1.3159560454
    4      C      -8.8327986564     2.1207245104    -0.6899669064
    5      C      -9.7527198353     1.0471537450     1.1622816828
    6      C      -8.7246004382     0.9517516865     0.1831846741
    7      C      -7.6538477507    -0.0794152207     0.2081945076
    8      C      -6.3219443657     0.3216227254    -0.0647009644
    9      C      -7.8847270276    -1.4600918854     0.5748710777
   10      N      -5.3257096380    -0.5506271702    -0.0948586674
   11      N      -9.0818510994    -1.9830772350     0.8955302127
   12      C      -6.7871432068    -2.2952691994     0.5151332291
   13      C      -5.5063232194    -1.8504826035     0.1982088787
   14      S      -8.8139424169    -3.5768750167     1.2275807649
   15      N      -7.2384590426    -3.5427606697     0.8683032277
   16      C      -4.3597116665    -2.8157619121     0.1365338988
   17      S      -4.4915651415    -4.5669793158     0.3747213591
   18      C      -3.0788411152    -2.4405596975    -0.1320995484
   19      C      -2.7224211923    -4.6690215379     0.5734751566
   20      S      -2.5122053752    -0.9172537385    -0.8353448068
   21      C      -2.1715380518    -3.4641866349     0.0955142565
   22      C      -1.9487052836    -5.7924597164     0.8207914555
   23      C      -0.8881816927    -1.6236202346    -0.5922595301
   24      C      -0.8411083612    -2.9421345614    -0.0867478374
   25      N      -2.7080287346    -6.8248238620     1.0844430586
   26      S      -0.1964802426    -6.0721002823     0.7523476130
   27      C      -1.9122119104    -7.7791547689     1.5719931608
   28      C      -0.5727682359    -7.5223755881     1.5716844689
   29      C     -11.8385958919     4.0895272320     0.4712435924
   30      H      -9.8553535393     3.9407002896    -1.3177126150
   31      H      -8.0875136804     2.1112260885    -1.4795902879
   32      H      -9.7495738161     0.2487544845     1.9028501964
   33      H      -6.0947006097     1.2924596966    -0.5022450773
   34      H      -0.1200215258    -0.8836920422    -0.7755113461
   35      H       0.0860229088    -3.4734724293     0.0966470327
   36      H      -2.3683773982    -8.7014390409     1.9076771929
   37      H       0.2309096594    -8.1211836439     1.9793114465
   38      H     -11.5597231606     4.9328700012     1.1164869366
   39      C     -13.2186909822     3.5801113284     0.7691546175
   40      H     -11.8980785126     4.4985092262    -0.5445219053
   41      H     -13.4047239308     2.9421393234     1.6419177370
   42      H     -13.4814564416     2.9511646680    -0.0891142284
   43      C     -14.1724398526     4.7989547880     0.9043497106
   44      H     -13.9243305066     5.3226273254     1.8363447889
   45      C     -15.6978584648     4.3511433004     1.0599161891
   46      H     -14.1068491304     5.4461227273     0.0210459601
   47      H     -15.9163874790     3.6052628412     1.8345428156
   48      H     -15.9219482150     3.8114308767     0.1317657253
   49      C     -16.6312372741     5.5898579241     1.2082336847
   50      H     -16.0261376044     6.2632311162     1.8274323071
   51      C     -17.9693300536     5.2490590512     1.9113139372
   52      H     -16.8483648133     6.1507983283     0.2905177730
   53      H     -17.8962117399     4.7086840102     2.8630799417
   54      H     -18.4045919042     4.5613377725     1.1751783762
   55      H     -18.6185304397     6.1314651192     1.9636531177
   56      C      12.2592034420     1.0987679465     1.3561594986
   57      C      11.3241755324     0.0611303421     1.4049038337
   58      N      11.8022660419     2.2717698652     0.8752970327
   59      C      10.0446933056     0.0541360748     0.8400770358
   60      C      10.5618613905     2.2909933587     0.3408770124
   61      C       9.5582046775     1.2058678552     0.3011171850
   62      C       8.1331022348     1.2908536820    -0.1130861917
   63      C       7.7033080493     0.4215342157    -1.0565625420
   64      C       7.2824438707     2.2313391614     0.4088778019
   65      N       6.4454782485     0.3466425140    -1.4705678862
   66      N       7.5634531818     3.1436087841     1.3644927362
   67      C       5.8754745970     2.1425902166     0.0882501555
   68      C       5.5044890358     1.1463034348    -0.9223592458
   69      S       6.0654530223     3.8396737131     1.7310212301
   70      N       5.0941099248     3.0271938084     0.7809086098
   71      C       4.0989264640     0.9207721769    -1.3779188010
   72      S       2.7249181936     1.9595481154    -0.9945328043
   73      C       3.6713445943    -0.0277643163    -2.3117117469
   74      C       1.5771350976     0.9876489979    -1.9899161827
   75      S       4.5690002088    -1.4266282597    -2.8527136562
   76      C       2.2780615925     0.0010172481    -2.5760431646
   77      C       0.2444340387     1.1669867321    -2.2095747011
   78      C       2.9883059792    -2.0783910473    -3.4552615974
   79      C       1.9263017869    -1.1646027802    -3.3418636324
   80      N      -0.3119102739     1.9002687296    -1.3132753550
   81      S      -0.7393307728     0.7459196765    -3.6246020261
   82      C      -1.5740861366     2.2983853396    -1.7001283715
   83      C      -2.0465908813     1.7485715377    -2.8249688266
   84      C      13.7310185920     1.1074942584     1.8395796219
   85      H      11.6652934524    -0.9108015250     1.7494920085
   86      H       9.5067459343    -0.8894960731     0.8618024850
   87      H      10.3368985944     3.2695568260    -0.0811256900
   88      H       8.3223001664    -0.3803283905    -1.4567913763
   89      H       2.9938196373    -2.9750370919    -4.0604032917
   90      H       0.9225188179    -1.3240402737    -3.7208087958
   91      H      -2.0829080843     3.0419086638    -1.1009194830
   92      H      -2.9211019374     1.9608868112    -3.4247909981
   93      H      13.9129653251     1.6642293284     2.7672877916
   94      C      14.6672514729     1.5260053026     0.6446442686
   95      H      13.9025630185     0.0421797402     2.0388319418
   96      H      14.6472859299     2.6145710271     0.5127805494
   97      H      14.3710956985     1.0030942001    -0.2742756062
   98      C      16.1553370965     1.1072637474     0.8447209708
   99      H      16.1967305444     0.0112849341     0.8630246133
  100      C      16.8704264055     1.6086089767     2.1271289562
  101      H      16.7856700397     1.2373418035    -0.0435099001
  102      H      16.1298259392     1.5291874090     2.9324141007
  103      H      17.0735383762     2.6843429109     2.0594973791
  104      C      18.1672757253     0.7610596791     2.3720453296
  105      H      18.5269056236     1.0250660121     3.3740877401
  106      C      19.3058198624     0.8637700507     1.2499803460
  107      H      17.9650106291    -0.3147462623     2.4489114949
  108      H      19.8167177088     1.8341701767     1.2092865401
  109      H      18.8348464463     0.7281144916     0.2687873932
  110      H      20.1241706549     0.1371581704     1.3276923520
 ----------------------------------------------------------------

    9   -5663.4559873596      9.92E-06 Convergence criterion met
 Total energy in the final basis set = -5663.4559873596

                    Orbital Energies (a.u.)
 --------------------------------------------------------------

 Alpha MOs
 -- Occupied --
-88.993 -88.993 -88.930 -88.929 -88.927 -88.918 -88.916 -88.908
-14.397 -14.386 -14.377 -14.374 -14.355 -14.348 -14.342 -14.333
-14.328 -14.325 -10.277 -10.269 -10.266 -10.263 -10.259 -10.258
-10.253 -10.250 -10.249 -10.240 -10.239 -10.237 -10.236 -10.236
-10.235 -10.234 -10.232 -10.231 -10.231 -10.231 -10.229 -10.228
-10.226 -10.221 -10.220 -10.220 -10.220 -10.219 -10.217 -10.216
-10.213 -10.213 -10.212 -10.208 -10.206 -10.205 -10.197 -10.196
-10.195 -10.187 -10.186 -10.185 -10.181 -10.180 -10.177 -10.177
-10.176 -10.175 -10.174 -10.171  -8.048  -8.048  -7.990  -7.990
 -7.985  -7.976  -7.975  -7.967  -6.013  -6.013  -6.007  -6.007
 -6.006  -6.005  -5.954  -5.954  -5.951  -5.951  -5.950  -5.947
 -5.947  -5.946  -5.942  -5.941  -5.940  -5.937  -5.936  -5.932
 -5.931  -5.931  -5.928  -5.923  -1.038  -1.032  -0.985  -0.984
 -0.968  -0.962  -0.938  -0.937  -0.916  -0.908  -0.907  -0.888
 -0.842  -0.841  -0.835  -0.827  -0.817  -0.815  -0.810  -0.805
 -0.801  -0.801  -0.798  -0.793  -0.781  -0.780  -0.770  -0.766
 -0.753  -0.748  -0.738  -0.737  -0.722  -0.717  -0.711  -0.706
 -0.696  -0.691  -0.684  -0.677  -0.658  -0.650  -0.650  -0.642
 -0.641  -0.632  -0.626  -0.621  -0.617  -0.608  -0.607  -0.597
 -0.596  -0.590  -0.588  -0.581  -0.575  -0.573  -0.570  -0.562
 -0.551  -0.545  -0.543  -0.537  -0.528  -0.525  -0.523  -0.516
 -0.510  -0.503  -0.502  -0.498  -0.489  -0.486  -0.480  -0.476
 -0.473  -0.471  -0.469  -0.466  -0.464  -0.456  -0.454  -0.451
 -0.448  -0.446  -0.443  -0.441  -0.439  -0.436  -0.434  -0.433
 -0.429  -0.425  -0.421  -0.418  -0.418  -0.414  -0.411  -0.410
 -0.407  -0.406  -0.405  -0.403  -0.402  -0.400  -0.399  -0.398
 -0.397  -0.392  -0.391  -0.389  -0.383  -0.383  -0.382  -0.377
 -0.376  -0.374  -0.374  -0.370  -0.363  -0.362  -0.361  -0.357
 -0.356  -0.353  -0.352  -0.351  -0.345  -0.344  -0.341  -0.339
 -0.334  -0.333  -0.332  -0.330  -0.330  -0.327  -0.322  -0.321
 -0.317  -0.313  -0.310  -0.306  -0.303  -0.300  -0.298  -0.297
 -0.296  -0.296  -0.292  -0.291  -0.290  -0.287  -0.285  -0.281
 -0.281  -0.273  -0.268  -0.265  -0.261  -0.249  -0.249  -0.246
 -0.245  -0.240  -0.238  -0.225  -0.204  -0.187

          Ground-State Mulliken Net Atomic Charges

     Atom                 Charge (a.u.)
  ----------------------------------------
      1 C                     0.272636
      2 C                    -0.103587
      3 N                    -0.480571
      4 C                    -0.108686
      5 C                     0.080018
      6 C                     0.057184
      7 C                    -0.004726
      8 C                     0.067988
      9 C                     0.249371
     10 N                    -0.526389
     11 N                    -0.578457
     12 C                     0.222593
     13 C                     0.330225
     14 S                     0.620325
     15 N                    -0.572157
     16 C                    -0.234739
     17 S                     0.358160
     18 C                    -0.110044
     19 C                    -0.205415
     20 S                     0.311210
     21 C                     0.109154
     22 C                     0.069694
     23 C                    -0.308847
     24 C                    -0.097876
     25 N                    -0.424001
     26 S                     0.277759
     27 C                     0.129265
     28 C                    -0.316857
     29 C                    -0.233578
     30 H                     0.095542
     31 H                     0.078130
     32 H                     0.103406
     33 H                     0.109714
     34 H                     0.141069
     35 H                     0.113888
     36 H                     0.105848
     37 H                     0.131528
     38 H                     0.112722
     39 C                    -0.166705
     40 H                     0.100042
     41 H                     0.116617
     42 H                     0.092801
     43 C                    -0.187234
     44 H                     0.098932
     45 C                    -0.184990
     46 H                     0.091709
     47 H                     0.094241
     48 H                     0.089587
     49 C                    -0.176789
     50 H                     0.089836
     51 C                    -0.322060
     52 H                     0.093273
     53 H                     0.105816
     54 H                     0.103265
     55 H                     0.099570
     56 C                     0.260764
     57 C                    -0.131403
     58 N                    -0.461696
     59 C                    -0.063447
     60 C                     0.081205
     61 C                     0.017196
     62 C                     0.024707
     63 C                     0.065829
     64 C                     0.263716
     65 N                    -0.519346
     66 N                    -0.567567
     67 C                     0.170863
     68 C                     0.319959
     69 S                     0.613877
     70 N                    -0.527526
     71 C                    -0.215683
     72 S                     0.345745
     73 C                    -0.140226
     74 C                    -0.204383
     75 S                     0.287272
     76 C                     0.162012
     77 C                     0.032653
     78 C                    -0.308971
     79 C                    -0.081809
     80 N                    -0.425979
     81 S                     0.238592
     82 C                     0.136041
     83 C                    -0.290928
     84 C                    -0.215114
     85 H                     0.071760
     86 H                     0.100700
     87 H                     0.100690
     88 H                     0.117556
     89 H                     0.130859
     90 H                     0.116257
     91 H                     0.120275
     92 H                     0.137945
     93 H                     0.124879
     94 C                    -0.174126
     95 H                     0.096702
     96 H                     0.118992
     97 H                     0.097274
     98 C                    -0.187463
     99 H                     0.084384
    100 C                    -0.174202
    101 H                     0.091265
    102 H                     0.092367
    103 H                     0.095751
    104 C                    -0.180480
    105 H                     0.089772
    106 C                    -0.328827
    107 H                     0.097298
    108 H                     0.104591
    109 H                     0.106630
    110 H                     0.103389
  ----------------------------------------
  Sum of atomic charges =     0.000000

                    Cartesian Multipole Moments
 -----------------------------------------------------------------
    Charge (ESU x 10^10)
                 0.0000
    Dipole Moment (Debye)
         X       1.6447      Y      -1.4122      Z      -2.1523
       Tot       3.0548
    Quadrupole Moments (Debye-Ang)
        XX    -452.4045     XY     -35.3265     YY    -423.1076
        XZ      22.0450     YZ     -10.7060     ZZ    -440.8214

 Total job time:  87.19s(wall), 928.99s(cpu)
        *  Thank you very much for using Q-Chem.  Have a nice day.  *
