 Q-Chem 4.4, Q-Chem, Inc., Pleasanton, CA (2016)
 Q-Chem 4.4.2 for Intel X86 Linux

User input:
--------------------------------------------------------------
$comment
SP
$end

$rem
MEM_STATIC 5000
MEM_TOTAL 20000
JOBTYPE SP
EXCHANGE B3LYP
BASIS 6-31g(d,p)
$end

$molecule
0 1
C          -2.108000    -30.428000      9.788000
C          -3.406000    -30.245000     10.296000
N          -1.151000    -29.504000      9.946000
C          -3.684000    -29.174000     11.109000
C          -1.407000    -28.383000     10.708000
C          -2.705000    -28.132000     11.246000
C          -3.064000    -26.863000     11.994000
C          -2.039000    -26.072000     12.642000
C          -4.340000    -26.316000     12.100000
N          -2.196000    -24.814000     13.150000
N          -5.439000    -26.844000     11.512000
C          -4.560000    -25.117000     12.747000
C          -3.450000    -24.302000     13.219000
S          -6.736000    -25.914000     11.955000
N          -5.856000    -24.772000     12.766000
C          -3.580000    -22.986000     13.822000
S          -5.089000    -22.191000     14.313000
C          -2.526000    -22.129000     14.146000
C          -4.235000    -20.762000     14.920000
S          -0.783000    -22.325000     14.056000
C          -2.912000    -20.946000     14.766000
C          -4.841000    -19.471000     15.263000
C          -0.608000    -20.719000     14.731000
C          -1.790000    -20.059000     15.065000
N          -4.165000    -18.419000     15.728000
S          -6.604000    -19.358000     15.260000
C          -5.080000    -17.353000     15.960000
C          -6.411000    -17.744000     15.840000
C          -1.657000    -31.494000      8.769000
H          -4.102000    -31.032000     10.021000
H          -4.683000    -29.062000     11.519000
H          -0.633000    -27.617000     10.679000
H          -1.000000    -26.398000     12.634000
H           0.424000    -20.396000     14.767000
H          -1.952000    -19.048000     15.423000
H          -4.758000    -16.366000     16.267000
H          -7.343000    -17.229000     16.032000
H          -2.605000    -32.008000      8.569000
C          -0.635000    -32.557000      9.332000
H          -1.280000    -31.083000      7.824000
H          -1.015000    -32.820000     10.326000
H           0.363000    -32.120000      9.465000
C          -0.522000    -33.896000      8.606000
H           0.381000    -34.398000      8.975000
C          -0.165000    -33.777000      7.152000
H          -1.441000    -34.422000      8.892000
H           0.685000    -33.087000      7.081000
H          -0.928000    -33.345000      6.493000
C           0.305000    -35.110000      6.513000
H           0.525000    -34.904000      5.459000
C          -0.708000    -36.210000      6.513000
H           1.209000    -35.452000      7.032000
H          -0.138000    -37.064000      6.126000
H          -1.557000    -36.065000      5.833000
H          -1.011000    -36.444000      7.541000
C          10.817000    -11.929000     11.150000
C          10.204000    -11.781000     12.411000
N          10.694000    -13.055000     10.453000
C           9.428000    -12.787000     12.929000
C           9.920000    -14.073000     10.915000
C           9.217000    -13.919000     12.137000
C           8.286000    -15.026000     12.687000
C           7.151000    -14.671000     13.434000
C           8.547000    -16.440000     12.515000
N           6.245000    -15.608000     13.891000
N           9.659000    -16.962000     11.867000
C           7.641000    -17.371000     13.011000
C           6.482000    -16.941000     13.683000
S           9.376000    -18.571000     11.874000
N           7.924000    -18.653000     12.696000
C           5.380000    -17.788000     14.021000
S           5.101000    -19.399000     13.477000
C           4.277000    -17.438000     14.783000
C           3.671000    -19.632000     14.473000
S           3.827000    -15.908000     15.537000
C           3.258000    -18.410000     14.964000
C           3.189000    -20.869000     15.108000
C           2.380000    -16.651000     16.184000
C           2.270000    -17.946000     15.820000
N           3.359000    -21.955000     14.417000
S           2.748000    -21.031000     16.789000
C           2.985000    -23.012000     15.198000
C           2.551000    -22.714000     16.437000
C          11.605000    -10.708000     10.589000
H          10.382000    -10.845000     12.933000
H           8.963000    -12.704000     13.907000
H          10.117000    -15.068000     10.519000
H           6.945000    -13.620000     13.631000
H           1.770000    -16.108000     16.893000
H           1.554000    -18.722000     16.069000
H           2.925000    -23.968000     14.694000
H           2.214000    -23.426000     17.178000
H          12.366000    -10.372000     11.303000
C          10.759000     -9.575000     10.041000
H          12.222000    -11.106000      9.774000
H          10.277000     -9.085000     10.896000
H          10.007000    -10.088000      9.429000
C          11.445000     -8.512000      9.168000
H          12.161000     -7.897000      9.727000
C          10.314000     -7.800000      8.252000
H          11.997000     -9.049000      8.386000
H           9.614000     -7.358000      8.971000
H           9.736000     -8.530000      7.672000
C          10.869000     -6.682000      7.410000
H          11.251000     -5.851000      8.015000
C           9.765000     -6.116000      6.558000
H          11.763000     -7.053000      6.892000
H          10.116000     -5.544000      5.690000
H           9.263000     -5.401000      7.220000
H           8.994000     -6.764000      6.122000
$end

--------------------------------------------------------------

             Standard Nuclear Orientation (Angstroms)
    I     Atom           X                Y                Z
 ----------------------------------------------------------------
    1      C      10.1973017726    -3.8124973397     0.8741402063
    2      C      10.8391243581    -2.5728295883     1.0404069644
    3      N       8.8810425052    -3.9006570069     0.6411629244
    4      C      10.1542383511    -1.4051171468     0.8109013842
    5      C       8.1433326581    -2.7489082939     0.4620537856
    6      C       8.7310378540    -1.4584180972     0.6248009974
    7      C       7.9385725222    -0.1681153279     0.5482277564
    8      C       6.6841721277    -0.1129031113    -0.1726337153
    9      C       8.2800204293     1.0326256484     1.1648763067
   10      N       5.7787206797     0.9087771860    -0.1325831805
   11      N       9.3703926379     1.1945447659     1.9504968552
   12      C       7.4590532408     2.1396821716     1.0938218914
   13      C       6.1347448702     2.0571312304     0.4950717919
   14      S       9.4190009216     2.7841761859     2.4131708043
   15      N       7.9734164808     3.2040939812     1.7274305694
   16      C       5.1663793459     3.1404280821     0.4618883234
   17      S       5.4508604316     4.8291769361     0.9281337736
   18      C       3.8435049535     3.0395025415     0.0258167960
   19      C       3.7942664633     5.3071762044     0.5194540409
   20      S       2.9393281450     1.7121168672    -0.6848705970
   21      C       3.1363361996     4.2363951586     0.0414825774
   22      C       3.1365160913     6.5627399620     0.8969326479
   23      C       1.5549196108     2.7763991508    -0.8121585827
   24      C       1.7484086065     4.0917696364    -0.3918699982
   25      N       1.8881072579     6.8921821064     0.5610037000
   26      S       4.1191829349     7.8119467409     1.6681623791
   27      C       1.5974271130     8.1824278257     1.0884276635
   28      C       2.7179309746     8.8181753637     1.6167629396
   29      C      10.7739783889    -5.2030778360     1.2085769919
   30      H      11.8884495428    -2.6522179065     1.3087801220
   31      H      10.6710185027    -0.4558627689     0.9133679678
   32      H       7.0646880974    -2.8930991777     0.4129834201
   33      H       6.3109954755    -0.9878910304    -0.7027245827
   34      H       0.6706583668     2.2636649579    -1.1668904529
   35      H       1.0427683397     4.9106329888    -0.3020723153
   36      H       0.6166877907     8.6346864756     1.0128333824
   37      H       2.8751285870     9.8149962551     2.0070833478
   38      H      11.7595346814    -4.9318814322     1.6061085062
   39      C      10.9933876818    -6.1457426344    -0.0382849251
   40      H      10.2229699306    -5.7437128439     1.9884349707
   41      H      11.4285140086    -5.5010404623    -0.8107026806
   42      H      10.0388570574    -6.5256937641    -0.4245107996
   43      C      11.9909382701    -7.2941252886     0.0991054066
   44      H      11.8383749787    -7.9693731202    -0.7519755578
   45      C      11.6863017595    -8.2395588511     1.2256390171
   46      H      12.9660528338    -6.7929424543     0.0674770299
   47      H      10.6219549296    -8.4964190850     1.1561433628
   48      H      11.8106599922    -7.8477058880     2.2425265651
   49      C      12.4615282282    -9.5805516572     1.1427401859
   50      H      12.1692518473   -10.1779675159     2.0141877224
   51      C      13.9507895911    -9.4620287450     1.2077164310
   52      H      12.1806413809   -10.0950986740     0.2154403712
   53      H      14.2837870530   -10.4912582080     1.0239110913
   54      H      14.3553587488    -9.1709149167     2.1853679720
   55      H      14.3158996737    -8.8365775726     0.3837901852
   56      C     -12.3540830222    -2.3081111365     0.3305079888
   57      C     -12.1047366692    -1.1535287442    -0.4392711326
   58      N     -11.3821891637    -3.1718539707     0.6101231605
   59      C     -10.8367217185    -0.8742670717    -0.8827652171
   60      C     -10.1055977739    -2.9296007536     0.2095338417
   61      C      -9.8060845854    -1.7315733442    -0.4877689449
   62      C      -8.3637773102    -1.3826558004    -0.9267635595
   63      C      -7.9587656853    -0.0388472485    -0.9757855903
   64      C      -7.3993707093    -2.3782170304    -1.3461425592
   65      N      -6.6661536383     0.3317956220    -1.2911139247
   66      N      -7.6583135310    -3.7404003649    -1.4257489548
   67      C      -6.1117078062    -1.9839569890    -1.6926916433
   68      C      -5.7512688945    -0.6247473254    -1.6437234757
   69      S      -6.2090986747    -4.3742304645    -1.8344722169
   70      N      -5.2647704629    -3.0016563374    -1.9569323910
   71      C      -4.4103058935    -0.1377848029    -1.7473706258
   72      S      -2.9592980481    -1.0653466758    -1.6898971155
   73      C      -4.0208614296     1.1896962237    -1.8240526533
   74      C      -1.9093311144     0.3061289357    -2.0182705084
   75      S      -4.9651686557     2.6791788444    -1.7835386362
   76      C      -2.6304149193     1.4734843766    -1.8690947028
   77      C      -0.6373498862     0.3290845487    -2.7580372251
   78      C      -3.4983872687     3.6157234742    -1.9730208751
   79      C      -2.4018546666     2.8313795579    -2.0365966058
   80      N       0.1245488417    -0.7090904236    -2.5922661326
   81      S      -0.2485769729     1.4286578342    -4.0566057492
   82      C       1.1872683298    -0.5896147271    -3.4428182166
   83      C       1.2087836451     0.5095847629    -4.2197214103
   84      C     -13.7998432967    -2.5073545915     0.8751044214
   85      H     -12.9584372961    -0.5169810482    -0.6543670888
   86      H     -10.6244485983    -0.0022309647    -1.4943951301
   87      H      -9.4337639788    -3.7838961951     0.1426858765
   88      H      -8.6686212550     0.7456518000    -0.7178857783
   89      H      -3.5617462308     4.6812563537    -2.1469614527
   90      H      -1.3516047663     3.0469725357    -2.2019078725
   91      H       1.9849839308    -1.3068130242    -3.2984976614
   92      H       1.9753521282     0.7607217842    -4.9400664368
   93      H     -14.5328340737    -2.4732385383     0.0606269105
   94      C     -14.1819375496    -1.6397855189     2.0587584612
   95      H     -13.8553255337    -3.5587080316     1.1831558221
   96      H     -14.2817838422    -0.6113016780     1.6903826927
   97      H     -13.3144190104    -1.7174955453     2.7255340875
   98      C     -15.4387527619    -2.0156405402     2.8599092119
   99      H     -16.3650811145    -1.8889230704     2.2861318455
  100      C     -15.3115727631    -1.3658633233     4.3386843186
  101      H     -15.3445281399    -3.0772690401     3.1219467069
  102      H     -15.2400702781    -0.2862221300     4.1609561877
  103      H     -14.3778031961    -1.6562297123     4.8358218809
  104      C     -16.5325109430    -1.6084531032     5.1856631611
  105      H     -17.4273501609    -1.1203115979     4.7813233968
  106      C     -16.3061753799    -1.0184745059     6.5515963467
  107      H     -16.7793312948    -2.6769575432     5.1348795454
  108      H     -16.9695288166    -1.4180500192     7.3288418853
  109      H     -16.5715220293     0.0378794922     6.4283876360
  110      H     -15.3207891620    -1.0602531668     7.0329585233
 ----------------------------------------------------------------

    9   -5663.5164198185      9.47E-06 Convergence criterion met
 Total energy in the final basis set = -5663.5164198185

                    Orbital Energies (a.u.)
 --------------------------------------------------------------

 Alpha MOs
 -- Occupied --
-88.990 -88.990 -88.931 -88.926 -88.925 -88.921 -88.908 -88.908
-14.392 -14.392 -14.385 -14.377 -14.354 -14.354 -14.354 -14.339
-14.328 -14.325 -10.276 -10.268 -10.267 -10.262 -10.262 -10.256
-10.256 -10.252 -10.245 -10.244 -10.243 -10.240 -10.240 -10.238
-10.235 -10.234 -10.230 -10.230 -10.229 -10.229 -10.228 -10.227
-10.226 -10.226 -10.225 -10.224 -10.223 -10.222 -10.222 -10.218
-10.209 -10.208 -10.204 -10.202 -10.198 -10.197 -10.196 -10.196
-10.186 -10.183 -10.182 -10.180 -10.180 -10.177 -10.176 -10.174
-10.173 -10.170 -10.170 -10.167  -8.046  -8.045  -7.992  -7.987
 -7.984  -7.981  -7.968  -7.967  -6.011  -6.010  -6.005  -6.005
 -6.003  -6.002  -5.956  -5.953  -5.951  -5.949  -5.949  -5.948
 -5.945  -5.945  -5.944  -5.941  -5.941  -5.938  -5.932  -5.932
 -5.928  -5.928  -5.924  -5.924  -1.032  -1.031  -0.981  -0.960
 -0.953  -0.950  -0.936  -0.929  -0.916  -0.912  -0.903  -0.895
 -0.852  -0.842  -0.830  -0.829  -0.814  -0.809  -0.807  -0.807
 -0.805  -0.803  -0.801  -0.795  -0.786  -0.781  -0.770  -0.764
 -0.751  -0.748  -0.742  -0.738  -0.724  -0.722  -0.710  -0.710
 -0.695  -0.692  -0.675  -0.673  -0.656  -0.652  -0.646  -0.645
 -0.636  -0.634  -0.626  -0.622  -0.611  -0.607  -0.600  -0.596
 -0.595  -0.591  -0.583  -0.580  -0.579  -0.577  -0.574  -0.552
 -0.548  -0.543  -0.540  -0.536  -0.525  -0.521  -0.521  -0.511
 -0.506  -0.501  -0.500  -0.496  -0.489  -0.487  -0.478  -0.477
 -0.472  -0.471  -0.470  -0.469  -0.464  -0.461  -0.451  -0.450
 -0.447  -0.446  -0.441  -0.436  -0.435  -0.433  -0.431  -0.429
 -0.427  -0.426  -0.425  -0.423  -0.422  -0.418  -0.415  -0.415
 -0.412  -0.409  -0.407  -0.403  -0.402  -0.401  -0.399  -0.394
 -0.394  -0.392  -0.392  -0.390  -0.388  -0.387  -0.382  -0.381
 -0.379  -0.378  -0.376  -0.373  -0.370  -0.365  -0.354  -0.352
 -0.350  -0.349  -0.348  -0.347  -0.346  -0.344  -0.341  -0.338
 -0.336  -0.336  -0.333  -0.333  -0.332  -0.328  -0.320  -0.317
 -0.312  -0.310  -0.309  -0.305  -0.305  -0.302  -0.300  -0.298
 -0.297  -0.296  -0.293  -0.293  -0.289  -0.286  -0.286  -0.281
 -0.277  -0.276  -0.268  -0.267  -0.258  -0.251  -0.247  -0.246
 -0.245  -0.240  -0.235  -0.231  -0.197  -0.194

          Ground-State Mulliken Net Atomic Charges

     Atom                 Charge (a.u.)
  ----------------------------------------
      1 C                     0.254766
      2 C                    -0.111994
      3 N                    -0.470730
      4 C                    -0.064076
      5 C                     0.056007
      6 C                     0.031331
      7 C                     0.040495
      8 C                     0.043331
      9 C                     0.237529
     10 N                    -0.527408
     11 N                    -0.581465
     12 C                     0.225269
     13 C                     0.331061
     14 S                     0.597619
     15 N                    -0.580226
     16 C                    -0.236256
     17 S                     0.321823
     18 C                    -0.097602
     19 C                    -0.246011
     20 S                     0.298338
     21 C                     0.132989
     22 C                     0.084117
     23 C                    -0.327829
     24 C                    -0.035172
     25 N                    -0.456157
     26 S                     0.272612
     27 C                     0.115705
     28 C                    -0.306254
     29 C                    -0.204387
     30 H                     0.088713
     31 H                     0.123823
     32 H                     0.108519
     33 H                     0.113639
     34 H                     0.133048
     35 H                     0.136359
     36 H                     0.121488
     37 H                     0.137643
     38 H                     0.079328
     39 C                    -0.184376
     40 H                     0.123386
     41 H                     0.085637
     42 H                     0.108693
     43 C                    -0.164906
     44 H                     0.092300
     45 C                    -0.168829
     46 H                     0.091561
     47 H                     0.090268
     48 H                     0.086891
     49 C                    -0.182148
     50 H                     0.087946
     51 C                    -0.307480
     52 H                     0.089127
     53 H                     0.098340
     54 H                     0.101387
     55 H                     0.103859
     56 C                     0.274513
     57 C                    -0.111355
     58 N                    -0.483794
     59 C                    -0.064344
     60 C                     0.064535
     61 C                     0.020801
     62 C                     0.018888
     63 C                     0.063086
     64 C                     0.221699
     65 N                    -0.539385
     66 N                    -0.545474
     67 C                     0.221754
     68 C                     0.319449
     69 S                     0.610792
     70 N                    -0.566859
     71 C                    -0.212785
     72 S                     0.353640
     73 C                    -0.128509
     74 C                    -0.220133
     75 S                     0.286789
     76 C                     0.130989
     77 C                     0.024849
     78 C                    -0.329481
     79 C                    -0.047555
     80 N                    -0.404733
     81 S                     0.284307
     82 C                     0.116877
     83 C                    -0.297228
     84 C                    -0.237055
     85 H                     0.086211
     86 H                     0.101892
     87 H                     0.137497
     88 H                     0.118344
     89 H                     0.134231
     90 H                     0.097897
     91 H                     0.115701
     92 H                     0.136732
     93 H                     0.097692
     94 C                    -0.167871
     95 H                     0.111957
     96 H                     0.089290
     97 H                     0.105267
     98 C                    -0.191439
     99 H                     0.093929
    100 C                    -0.172140
    101 H                     0.099195
    102 H                     0.091561
    103 H                     0.100952
    104 C                    -0.174027
    105 H                     0.096558
    106 C                    -0.320763
    107 H                     0.090829
    108 H                     0.096962
    109 H                     0.105155
    110 H                     0.102468
  ----------------------------------------
  Sum of atomic charges =     0.000000

                    Cartesian Multipole Moments
 -----------------------------------------------------------------
    Charge (ESU x 10^10)
                 0.0000
    Dipole Moment (Debye)
         X       0.9044      Y       4.7163      Z      -1.0230
       Tot       4.9100
    Quadrupole Moments (Debye-Ang)
        XX    -388.6805     XY      -8.7840     YY    -415.4385
        XZ       8.8701     YZ       8.2247     ZZ    -438.9665

 Total job time:  85.38s(wall), 917.55s(cpu)
        *  Thank you very much for using Q-Chem.  Have a nice day.  *
