 Q-Chem 4.4, Q-Chem, Inc., Pleasanton, CA (2016)
 Q-Chem 4.4.2 for Intel X86 Linux

User input:
--------------------------------------------------------------
$comment
SP
$end

$rem
MEM_STATIC 5000
MEM_TOTAL 20000
JOBTYPE SP
EXCHANGE B3LYP
BASIS 6-31g(d,p)
$end

$molecule
0 1
C          -1.356000    -17.143000     11.799000
C          -0.509000    -16.902000     12.901000
N          -0.926000    -17.202000     10.490000
C           0.802000    -16.506000     12.634000
C           0.388000    -16.793000     10.297000
C           1.296000    -16.412000     11.320000
C           2.694000    -16.043000     10.982000
C           3.148000    -14.781000     11.319000
C           3.647000    -17.001000     10.581000
N           4.399000    -14.360000     11.063000
N           3.320000    -18.283000     10.465000
C           4.960000    -16.637000     10.336000
C           5.285000    -15.236000     10.405000
S           4.659000    -18.977000      9.851000
N           5.694000    -17.699000      9.912000
C           6.623000    -14.754000      9.818000
S           7.624000    -15.735000      8.731000
C           6.937000    -13.436000      9.595000
C           8.456000    -14.272000      8.033000
S           6.139000    -11.957000     10.232000
C           7.831000    -13.183000      8.561000
C           9.322000    -14.277000      6.941000
C           7.071000    -11.001000      8.959000
C           7.948000    -11.815000      8.254000
N           9.848000    -15.455000      6.656000
S           9.316000    -13.124000      5.615000
C          10.180000    -15.546000      5.288000
C           9.820000    -14.471000      4.556000
C          -2.745000    -17.658000     12.062000
H          -0.873000    -17.238000     13.868000
H           1.452000    -16.221000     13.455000
H           0.736000    -16.821000      9.265000
H           2.431000    -14.027000     11.641000
H           6.852000     -9.962000      8.749000
H           8.530000    -11.421000      7.429000
H          10.593000    -16.456000      4.873000
H           9.659000    -14.185000      3.525000
H          -2.662000    -18.668000     12.483000
C          -3.654000    -17.664000     10.777000
H          -3.319000    -17.075000     12.793000
H          -3.219000    -18.185000      9.915000
H          -3.860000    -16.652000     10.407000
C          -4.912000    -18.400000     11.162000
H          -4.624000    -19.402000     11.504000
C          -6.032000    -18.634000     10.027000
H          -5.418000    -17.839000     11.958000
H          -6.988000    -19.060000     10.355000
H          -5.706000    -19.398000      9.311000
C          -6.464000    -17.295000      9.442000
H          -5.623000    -16.932000      8.839000
C          -7.112000    -16.394000     10.512000
H          -7.207000    -17.505000      8.662000
H          -8.016000    -16.916000     10.847000
H          -7.347000    -15.373000     10.186000
H          -6.456000    -16.280000     11.384000
C          10.817000    -11.929000     11.150000
C          10.204000    -11.781000     12.411000
N          10.694000    -13.055000     10.453000
C           9.428000    -12.787000     12.929000
C           9.920000    -14.073000     10.915000
C           9.217000    -13.919000     12.137000
C           8.286000    -15.026000     12.687000
C           7.151000    -14.671000     13.434000
C           8.547000    -16.440000     12.515000
N           6.245000    -15.608000     13.891000
N           9.659000    -16.962000     11.867000
C           7.641000    -17.371000     13.011000
C           6.482000    -16.941000     13.683000
S           9.376000    -18.571000     11.874000
N           7.924000    -18.653000     12.696000
C           5.380000    -17.788000     14.021000
S           5.101000    -19.399000     13.477000
C           4.277000    -17.438000     14.783000
C           3.671000    -19.632000     14.473000
S           3.827000    -15.908000     15.537000
C           3.258000    -18.410000     14.964000
C           3.189000    -20.869000     15.108000
C           2.380000    -16.651000     16.184000
C           2.270000    -17.946000     15.820000
N           3.359000    -21.955000     14.417000
S           2.748000    -21.031000     16.789000
C           2.985000    -23.012000     15.198000
C           2.551000    -22.714000     16.437000
C          11.605000    -10.708000     10.589000
H          10.382000    -10.845000     12.933000
H           8.963000    -12.704000     13.907000
H          10.117000    -15.068000     10.519000
H           6.945000    -13.620000     13.631000
H           1.770000    -16.108000     16.893000
H           1.554000    -18.722000     16.069000
H           2.925000    -23.968000     14.694000
H           2.214000    -23.426000     17.178000
H          12.366000    -10.372000     11.303000
C          10.759000     -9.575000     10.041000
H          12.222000    -11.106000      9.774000
H          10.277000     -9.085000     10.896000
H          10.007000    -10.088000      9.429000
C          11.445000     -8.512000      9.168000
H          12.161000     -7.897000      9.727000
C          10.314000     -7.800000      8.252000
H          11.997000     -9.049000      8.386000
H           9.614000     -7.358000      8.971000
H           9.736000     -8.530000      7.672000
C          10.869000     -6.682000      7.410000
H          11.251000     -5.851000      8.015000
C           9.765000     -6.116000      6.558000
H          11.763000     -7.053000      6.892000
H          10.116000     -5.544000      5.690000
H           9.263000     -5.401000      7.220000
H           8.994000     -6.764000      6.122000
$end

--------------------------------------------------------------

             Standard Nuclear Orientation (Angstroms)
    I     Atom           X                Y                Z
 ----------------------------------------------------------------
    1      C      -6.1001833887    -2.9032196270    -0.5285063028
    2      C      -5.6579275549    -1.8575598641    -1.3657036737
    3      N      -5.3824179238    -3.3949326150     0.5414904612
    4      C      -4.3369179258    -1.4312290162    -1.2242767744
    5      C      -4.0754631636    -2.9293396869     0.6203478014
    6      C      -3.4850748529    -1.9674751765    -0.2412857090
    7      C      -2.0882956403    -1.5167641964    -0.0161714189
    8      C      -1.1596885533    -1.7025670766    -1.0238892206
    9      C      -1.7348598207    -0.6767753572     1.0591312693
   10      N       0.1245193825    -1.3191097463    -0.9164254904
   11      N      -2.6450887170    -0.2713643541     1.9372168432
   12      C      -0.4365176909    -0.2192783265     1.2057402076
   13      C       0.5512350694    -0.7164704150     0.2836059920
   14      S      -1.7806477705     0.5363960058     3.0560635936
   15      N      -0.3027917211     0.5289161316     2.3321053429
   16      C       2.0409530894    -0.5103537751     0.6082491064
   17      S       2.6364501238    -0.0396045070     2.2112804250
   18      C       3.0677117183    -1.1453262932    -0.0459875627
   19      C       4.2958719232    -0.7211512993     1.8925167797
   20      S       3.0416915842    -2.0237065828    -1.6137200079
   21      C       4.2288568856    -1.3552956953     0.6888972927
   22      C       5.3142969318    -0.8473689508     2.8355568670
   23      C       4.6874508988    -2.7225883015    -1.1597050064
   24      C       5.1554703830    -2.1860541262     0.0327038333
   25      N       5.1791695597    -0.0810986728     3.9033374880
   26      S       6.3512961672    -2.2493577533     3.0518459871
   27      C       5.8218720509    -0.6506567124     5.0224738279
   28      C       6.3526699853    -1.8707351835     4.7972826265
   29      C      -7.5449990241    -3.3167229762    -0.6008786723
   30      H      -6.4291563025    -1.3231660540    -1.9135270710
   31      H      -3.9357221283    -0.6960550727    -1.9144413960
   32      H      -3.4925778340    -3.3212715193     1.4531419724
   33      H      -1.4140868364    -2.3398402487    -1.8697340159
   34      H       5.1436916627    -3.5261202702    -1.7234094863
   35      H       6.0831592298    -2.5339294490     0.4719772825
   36      H       5.7843276449    -0.1712347048     5.9918235874
   37      H       6.7075563298    -2.7350908511     5.3428309399
   38      H      -8.1584505642    -2.4845425957    -0.2329343527
   39      C      -7.8509219486    -4.6327340585     0.2066286004
   40      H      -7.9094948022    -3.5329862073    -1.6128564599
   41      H      -7.5199749499    -4.6115485566     1.2524465857
   42      H      -7.3484908417    -5.5099384073    -0.2194647148
   43      C      -9.3513835900    -4.7779414734     0.2104586827
   44      H      -9.7755834826    -3.8730798176     0.6634397364
   45      C      -9.9924184293    -6.0123330094     1.0245427512
   46      H      -9.6952604827    -4.9025966761    -0.8242310114
   47      H     -11.0719416020    -6.1714554925     0.9136114440
   48      H      -9.9238312659    -5.8422817748     2.1057487346
   49      C      -9.4218391961    -7.3266264296     0.5060428529
   50      H      -8.3790371963    -7.3685889554     0.8428842632
   51      C      -9.7797153853    -7.5517983326    -0.9764642288
   52      H      -9.8680930252    -8.1329517956     1.1020679565
   53      H     -10.8726863606    -7.6248615104    -1.0211992176
   54      H      -9.3089734518    -8.4249656375    -1.4454235977
   55      H      -9.4822485656    -6.6927374932    -1.5906661217
   56      C       6.4161867913     1.3435540122    -1.5746024620
   57      C       5.6188555078     1.6490266655    -2.6965397519
   58      N       5.9331063648     1.4430620042    -0.3394727275
   59      C       4.3066785990     2.0169620607    -2.5373188204
   60      C       4.6337305069     1.7850061926    -0.1308089981
   61      C       3.7817564552     2.0094993775    -1.2420929515
   62      C       2.2840219788     2.3557234842    -1.0642438410
   63      C       1.3537343623     1.9289739863    -2.0258616532
   64      C       1.7790398720     3.1529777991     0.0341548248
   65      N      -0.0033372700     2.1454831288    -1.8875345915
   66      N       2.5699457737     3.7126682139     1.0292158753
   67      C       0.4128679644     3.3896684929     0.1398186048
   68      C      -0.4719457511     2.8641577286    -0.8197167648
   69      S       1.4786763377     4.3899210522     2.0389082101
   70      N       0.0415203150     4.0454235184     1.2600526294
   71      C      -1.8957247225     2.8435560459    -0.6837534934
   72      S      -2.8106384334     3.1946629431     0.7335519953
   73      C      -2.8084892651     2.4477817159    -1.6481064213
   74      C      -4.3671598709     3.0468255207    -0.0705562754
   75      S      -2.5724908996     1.8233605362    -3.2809931172
   76      C      -4.1852957989     2.4491237436    -1.3012520319
   77      C      -5.6116236534     3.7840196410     0.2006866468
   78      C      -4.3070750774     1.7241097153    -3.4950818945
   79      C      -4.9765572027     2.1193911717    -2.3918288618
   80      N      -5.8464168694     4.0435520510     1.4510034362
   81      S      -6.5749142866     4.6075939401    -0.9994310682
   82      C      -6.9556744062     4.8390181265     1.5131921780
   83      C      -7.5254451490     5.1610013405     0.3367700128
   84      C       7.8673490093     0.8443253283    -1.8418194868
   85      H       6.0976814517     1.5778522908    -3.6691259556
   86      H       3.6792719571     2.2768748937    -3.3849061167
   87      H       4.3757826400     2.1896040124     0.8466435595
   88      H       1.6978349389     1.3704908886    -2.8950782100
   89      H      -4.7142833608     1.4938785350    -4.4701742069
   90      H      -6.0327072634     2.2420305135    -2.1765624197
   91      H      -7.3589230109     5.0029124781     2.5041922811
   92      H      -8.4070100558     5.7738808955     0.2070936229
   93      H       8.4165190309     1.5559408516    -2.4693771610
   94      C       7.9920548892    -0.5904211004    -2.3168564630
   95      H       8.3917984784     0.9392852422    -0.8830424694
   96      H       7.6099243493    -0.6279858014    -3.3444819511
   97      H       7.3221244172    -1.1426750409    -1.6464642286
   98      C       9.3770795445    -1.2551385691    -2.2663451685
   99      H      10.0907314081    -0.8099219654    -2.9705079291
  100      C       9.1686649233    -2.8616627036    -2.2379805639
  101      H       9.7653678801    -1.1068484512    -1.2505503027
  102      H       8.6335723763    -3.0874048019    -3.1680566206
  103      H       8.5072681708    -3.1755206478    -1.4210157381
  104      C      10.4713548141    -3.6160284764    -2.2670379072
  105      H      11.0264243169    -3.4589110822    -3.1996267616
  106      C      10.1849734914    -5.0912927441    -2.1854469856
  107      H      11.1325324227    -3.1898290902    -1.5012708062
  108      H      11.0420914558    -5.6981931227    -1.8679100185
  109      H       9.9697118605    -5.3745093633    -3.2222322946
  110      H       9.3716904377    -5.4789150867    -1.5587408390
 ----------------------------------------------------------------

   10   -5663.4642445118      4.29E-06 Convergence criterion met
 Total energy in the final basis set = -5663.4642445118

                    Orbital Energies (a.u.)
 --------------------------------------------------------------

 Alpha MOs
 -- Occupied --
-88.985 -88.984 -88.930 -88.921 -88.920 -88.920 -88.910 -88.909
-14.387 -14.387 -14.383 -14.376 -14.351 -14.350 -14.341 -14.337
-14.329 -14.322 -10.274 -10.265 -10.263 -10.258 -10.257 -10.251
-10.251 -10.245 -10.243 -10.238 -10.236 -10.235 -10.234 -10.234
-10.232 -10.232 -10.231 -10.229 -10.227 -10.226 -10.225 -10.225
-10.225 -10.224 -10.222 -10.222 -10.218 -10.211 -10.210 -10.206
-10.204 -10.203 -10.203 -10.203 -10.201 -10.198 -10.193 -10.190
-10.184 -10.183 -10.182 -10.179 -10.178 -10.177 -10.172 -10.171
-10.170 -10.170 -10.170 -10.168  -8.040  -8.039  -7.991  -7.981
 -7.980  -7.977  -7.968  -7.968  -6.005  -6.004  -6.000  -5.998
 -5.998  -5.997  -5.955  -5.952  -5.948  -5.946  -5.945  -5.942
 -5.942  -5.941  -5.938  -5.938  -5.937  -5.934  -5.933  -5.933
 -5.929  -5.929  -5.925  -5.924  -1.036  -1.027  -0.979  -0.963
 -0.947  -0.941  -0.931  -0.917  -0.915  -0.908  -0.900  -0.897
 -0.852  -0.832  -0.825  -0.824  -0.813  -0.805  -0.805  -0.803
 -0.799  -0.797  -0.797  -0.793  -0.784  -0.778  -0.767  -0.763
 -0.748  -0.745  -0.741  -0.733  -0.725  -0.718  -0.708  -0.701
 -0.694  -0.686  -0.673  -0.669  -0.654  -0.650  -0.641  -0.635
 -0.633  -0.632  -0.622  -0.621  -0.609  -0.609  -0.599  -0.597
 -0.594  -0.593  -0.582  -0.580  -0.577  -0.572  -0.571  -0.544
 -0.543  -0.541  -0.537  -0.535  -0.522  -0.520  -0.519  -0.515
 -0.502  -0.499  -0.498  -0.495  -0.485  -0.479  -0.477  -0.471
 -0.470  -0.469  -0.467  -0.463  -0.460  -0.459  -0.449  -0.447
 -0.447  -0.443  -0.441  -0.438  -0.435  -0.434  -0.432  -0.431
 -0.430  -0.427  -0.423  -0.421  -0.420  -0.415  -0.414  -0.412
 -0.406  -0.404  -0.399  -0.396  -0.395  -0.393  -0.392  -0.390
 -0.389  -0.388  -0.387  -0.383  -0.382  -0.379  -0.378  -0.377
 -0.376  -0.373  -0.371  -0.366  -0.364  -0.359  -0.353  -0.351
 -0.350  -0.347  -0.346  -0.345  -0.343  -0.341  -0.337  -0.337
 -0.335  -0.333  -0.331  -0.330  -0.327  -0.323  -0.320  -0.313
 -0.312  -0.311  -0.306  -0.304  -0.301  -0.300  -0.298  -0.295
 -0.293  -0.289  -0.287  -0.285  -0.284  -0.281  -0.279  -0.276
 -0.273  -0.273  -0.262  -0.258  -0.256  -0.251  -0.245  -0.244
 -0.241  -0.237  -0.235  -0.228  -0.198  -0.192

          Ground-State Mulliken Net Atomic Charges

     Atom                 Charge (a.u.)
  ----------------------------------------
      1 C                     0.268640
      2 C                    -0.116325
      3 N                    -0.477899
      4 C                    -0.072989
      5 C                     0.078402
      6 C                     0.036498
      7 C                    -0.020540
      8 C                     0.089487
      9 C                     0.241400
     10 N                    -0.509601
     11 N                    -0.538673
     12 C                     0.242245
     13 C                     0.276738
     14 S                     0.623177
     15 N                    -0.581391
     16 C                    -0.235399
     17 S                     0.337328
     18 C                    -0.128754
     19 C                    -0.205586
     20 S                     0.262627
     21 C                     0.175928
     22 C                     0.065740
     23 C                    -0.309369
     24 C                    -0.064768
     25 N                    -0.434184
     26 S                     0.246093
     27 C                     0.118824
     28 C                    -0.307514
     29 C                    -0.251418
     30 H                     0.094675
     31 H                     0.110451
     32 H                     0.099357
     33 H                     0.118581
     34 H                     0.133318
     35 H                     0.113117
     36 H                     0.120896
     37 H                     0.147498
     38 H                     0.119532
     39 C                    -0.162394
     40 H                     0.107126
     41 H                     0.119298
     42 H                     0.100525
     43 C                    -0.181717
     44 H                     0.084033
     45 C                    -0.186617
     46 H                     0.085709
     47 H                     0.082727
     48 H                     0.085525
     49 C                    -0.177380
     50 H                     0.097430
     51 C                    -0.313883
     52 H                     0.083561
     53 H                     0.104623
     54 H                     0.100861
     55 H                     0.104654
     56 C                     0.276528
     57 C                    -0.110964
     58 N                    -0.492392
     59 C                    -0.061766
     60 C                     0.067212
     61 C                     0.027438
     62 C                     0.019547
     63 C                     0.066742
     64 C                     0.229249
     65 N                    -0.539831
     66 N                    -0.543954
     67 C                     0.229179
     68 C                     0.312000
     69 S                     0.616933
     70 N                    -0.574782
     71 C                    -0.218101
     72 S                     0.347772
     73 C                    -0.127962
     74 C                    -0.213482
     75 S                     0.280935
     76 C                     0.130274
     77 C                     0.039146
     78 C                    -0.337568
     79 C                    -0.050420
     80 N                    -0.405968
     81 S                     0.278984
     82 C                     0.117212
     83 C                    -0.303614
     84 C                    -0.237624
     85 H                     0.083167
     86 H                     0.099991
     87 H                     0.152838
     88 H                     0.124545
     89 H                     0.133398
     90 H                     0.102104
     91 H                     0.110648
     92 H                     0.132218
     93 H                     0.096413
     94 C                    -0.173292
     95 H                     0.109786
     96 H                     0.088310
     97 H                     0.107491
     98 C                    -0.189514
     99 H                     0.094207
    100 C                    -0.173749
    101 H                     0.097577
    102 H                     0.091075
    103 H                     0.093963
    104 C                    -0.173653
    105 H                     0.098168
    106 C                    -0.320626
    107 H                     0.091401
    108 H                     0.097754
    109 H                     0.105775
    110 H                     0.099058
  ----------------------------------------
  Sum of atomic charges =     0.000000

                    Cartesian Multipole Moments
 -----------------------------------------------------------------
    Charge (ESU x 10^10)
                 0.0000
    Dipole Moment (Debye)
         X       0.2964      Y       0.0895      Z      -1.7892
       Tot       1.8158
    Quadrupole Moments (Debye-Ang)
        XX    -405.7395     XY     -38.0404     YY    -440.3548
        XZ      10.8266     YZ      -3.2456     ZZ    -418.7106

 Total job time:  119.08s(wall), 1273.25s(cpu)
        *  Thank you very much for using Q-Chem.  Have a nice day.  *
