 Q-Chem 4.4, Q-Chem, Inc., Pleasanton, CA (2016)
 Q-Chem 4.4.2 for Intel X86 Linux

User input:
--------------------------------------------------------------
$comment
SP
$end

$rem
MEM_STATIC 5000
MEM_TOTAL 20000
JOBTYPE SP
EXCHANGE B3LYP
BASIS 6-31g(d,p)
$end

$molecule
0 1
C         -16.193000     -9.771000     10.945000
C         -16.542000     -8.530000     11.427000
N         -16.106000    -10.053000      9.640000
C         -16.984000     -7.544000     10.573000
C         -16.529000     -9.116000      8.751000
C         -17.065000     -7.848000      9.177000
C         -17.686000     -6.832000      8.309000
C         -18.941000     -6.267000      8.656000
C         -17.020000     -6.270000      7.171000
N         -19.508000     -5.260000      7.972000
N         -15.758000     -6.723000      6.756000
C         -17.613000     -5.200000      6.467000
C         -18.856000     -4.679000      6.897000
S         -15.453000     -5.770000      5.421000
N         -16.819000     -4.840000      5.444000
C         -19.403000     -3.453000      6.292000
S         -18.440000     -2.065000      5.833000
C         -20.756000     -3.138000      6.223000
C         -19.911000     -1.077000      5.516000
S         -22.110000     -4.210000      6.305000
C         -21.059000     -1.869000      5.817000
C         -19.922000      0.223000      4.889000
C         -23.149000     -2.905000      5.733000
C         -22.434000     -1.656000      5.553000
N         -20.997000      1.000000      4.742000
S         -18.448000      0.822000      4.155000
C         -20.628000      2.138000      3.971000
C         -19.322000      2.280000      3.711000
C         -15.820000    -10.804000     11.896000
H         -16.746000     -8.347000     12.478000
H         -17.319000     -6.577000     10.935000
H         -16.503000     -9.368000      7.692000
H         -19.414000     -6.537000      9.599000
H         -24.203000     -3.113000      5.612000
H         -22.825000     -0.721000      5.169000
H         -21.322000      2.936000      3.742000
H         -18.864000      3.138000      3.237000
H         -16.351000    -10.682000     12.848000
C         -14.241000    -10.805000     12.152000
H         -16.153000    -11.741000     11.435000
H         -14.141000    -11.620000     12.879000
H         -14.047000     -9.801000     12.550000
C         -13.331000    -11.012000     10.927000
H         -13.774000    -11.828000     10.342000
C         -11.852000    -11.438000     11.367000
H         -13.298000    -10.143000     10.259000
H         -11.842000    -12.492000     11.671000
H         -11.467000    -10.766000     12.145000
C         -10.941000    -11.470000     10.167000
H         -11.242000    -12.346000      9.581000
C          -9.390000    -11.565000     10.333000
H         -11.011000    -10.509000      9.643000
H          -8.992000    -11.463000      9.316000
H          -8.953000    -12.399000     10.897000
H          -9.060000    -10.663000     10.863000
C         -16.766000     -9.696000      2.170000
C         -16.982000     -8.511000      2.822000
N         -16.948000    -10.913000      2.774000
C         -17.558000     -8.473000      4.085000
C         -17.483000    -10.884000      3.992000
C         -17.820000     -9.726000      4.742000
C         -18.573000     -9.740000      6.040000
C         -19.515000     -8.714000      6.235000
C         -18.510000    -10.721000      7.020000
N         -20.343000     -8.689000      7.274000
N         -17.728000    -11.804000      7.050000
C         -19.324000    -10.610000      8.164000
C         -20.207000     -9.520000      8.296000
S         -17.978000    -12.566000      8.440000
N         -19.074000    -11.569000      9.053000
C         -21.222000     -9.401000      9.296000
S         -21.423000    -10.519000     10.673000
C         -22.066000     -8.305000      9.520000
C         -22.530000     -9.415000     11.489000
S         -22.306000     -6.815000      8.706000
C         -22.657000     -8.276000     10.796000
C         -23.200000     -9.663000     12.732000
C         -23.207000     -6.151000     10.092000
C         -23.309000     -7.043000     11.105000
N         -23.002000    -10.875000     13.283000
S         -23.864000     -8.545000     13.906000
C         -23.537000    -11.008000     14.562000
C         -23.913000     -9.814000     15.091000
C         -16.207000     -9.816000      0.795000
H         -16.678000     -7.602000      2.312000
H         -17.832000     -7.533000      4.555000
H         -17.611000    -11.901000      4.359000
H         -19.776000     -8.024000      5.433000
H         -23.624000     -5.160000      9.972000
H         -23.875000     -6.772000     11.988000
H         -23.519000    -11.946000     15.100000
H         -24.311000     -9.670000     16.086000
H         -16.078000     -8.791000      0.424000
C         -17.326000    -10.329000     -0.256000
H         -15.249000    -10.350000      0.814000
H         -18.317000     -9.943000      0.015000
H         -17.359000    -11.418000     -0.135000
C         -16.988000     -9.924000     -1.742000
H         -16.801000     -8.844000     -1.731000
C         -18.095000    -10.263000     -2.762000
H         -16.029000    -10.400000     -1.979000
H         -19.087000     -9.956000     -2.408000
H         -18.199000    -11.352000     -2.843000
C         -17.668000     -9.716000     -4.153000
H         -18.508000     -9.869000     -4.842000
C         -16.531000    -10.414000     -4.876000
H         -17.533000     -8.629000     -4.111000
H         -16.805000    -11.423000     -5.208000
H         -15.688000    -10.531000     -4.185000
H         -16.108000     -9.875000     -5.733000
$end

--------------------------------------------------------------

             Standard Nuclear Orientation (Angstroms)
    I     Atom           X                Y                Z
 ----------------------------------------------------------------
    1      C       4.2388984053    -1.7809904148    -2.2607779809
    2      C       4.0432044510    -0.5187482560    -2.7732763797
    3      N       3.2583927991    -2.5127903722    -1.7193026088
    4      C       2.8394571612     0.1287759271    -2.6042175299
    5      C       2.0483172922    -1.9241621800    -1.5283756103
    6      C       1.8041503525    -0.5497864329    -1.8862440377
    7      C       0.5858203549     0.2225812625    -1.5855096697
    8      C       0.6839811161     1.5111474524    -0.9984656857
    9      C      -0.7236303019    -0.2066994722    -1.9798458564
   10      N      -0.3759207225     2.3120997297    -0.8023087536
   11      N      -0.9377373640    -1.4458372917    -2.6033630017
   12      C      -1.8309840765     0.6469929048    -1.7871234048
   13      C      -1.6400894368     1.9278962854    -1.2177063643
   14      S      -2.5899406976    -1.4531676667    -2.8349432468
   15      N      -2.9478672553     0.0401877886    -2.2240725048
   16      C      -2.7455196355     2.8997241437    -1.1742933496
   17      S      -3.9159271178     3.1204586039    -2.4572651433
   18      C      -2.8692404295     3.9189644905    -0.2359771553
   19      C      -4.5873501349     4.5932504430    -1.6695156077
   20      S      -2.1554095481     4.0194175941     1.3355121532
   21      C      -3.8434473952     4.8458517896    -0.4784781298
   22      C      -5.7875287117     5.2828708986    -2.0784716090
   23      C      -3.2379032022     5.3582860141     1.7167848148
   24      C      -4.0806309529     5.7349573474     0.5980557837
   25      N      -6.2337178277     6.4290061215    -1.5605407994
   26      S      -6.8271330665     4.5367727627    -3.2754650747
   27      C      -7.5016136161     6.7205042650    -2.1377020440
   28      C      -7.8897835900     5.9299440444    -3.1465323612
   29      C       5.5546683943    -2.3838464374    -2.3870037792
   30      H       4.8649132885     0.1210979917    -3.0816549875
   31      H       2.6798181755     1.1456923399    -2.9488251380
   32      H       1.2676372192    -2.5071568385    -1.0422512929
   33      H       1.6635359934     1.9564459003    -0.8309558808
   34      H      -3.1604478115     5.8088018072     2.6965078280
   35      H      -4.8592152183     6.4887005392     0.5825721591
   36      H      -8.0558862282     7.6193853939    -1.9017452951
   37      H      -8.7665582608     6.0798463400    -3.7624864817
   38      H       6.3459381284    -1.6243824983    -2.3710121218
   39      C       5.6622596801    -3.2509921967    -3.7268770371
   40      H       5.6616617434    -3.0096974133    -1.4935598922
   41      H       6.6942011290    -3.6169971808    -3.6644975720
   42      H       5.4769607151    -2.5166723680    -4.5209139902
   43      C       4.6534911286    -4.4013524797    -3.9018948331
   44      H       4.6002763871    -4.9208856460    -2.9367091099
   45      C       5.1428368873    -5.4386461947    -5.0186219605
   46      H       3.6350819010    -4.0565804527    -4.1174148889
   47      H       5.9407137263    -6.0736900519    -4.6142164099
   48      H       5.4390766468    -4.9139683561    -5.9362537879
   49      C       4.0660800410    -6.4573890233    -5.2901044518
   50      H       4.0325409133    -7.1058667655    -4.4070842115
   51      C       4.1465280025    -7.4067238308    -6.5288431445
   52      H       3.1314251224    -5.9322400355    -5.5216983286
   53      H       3.1946611524    -7.9517410617    -6.5271946287
   54      H       5.0245249358    -8.0511622505    -6.6646426592
   55      H       4.1167437073    -6.7782385836    -7.4274660853
   56      C      -3.2781367864    -4.6114559957     1.3193373136
   57      C      -3.3090233873    -3.4068914636     0.6681420235
   58      N      -2.1263149345    -5.1337724583     1.8480347075
   59      C      -2.2051672125    -2.5645555465     0.6491486501
   60      C      -1.0593413715    -4.3392827151     1.8173188515
   61      C      -0.9838606570    -3.0439835761     1.2397932657
   62      C       0.1891220716    -2.1176172907     1.3738306629
   63      C      -0.1005762885    -0.7514087293     1.5400053509
   64      C       1.5252418126    -2.4846220804     1.4564231673
   65      N       0.8358870425     0.1526166657     1.8074086327
   66      N       2.0482256326    -3.7106817538     1.3638024278
   67      C       2.5067820495    -1.4899886856     1.6323099867
   68      C       2.1262287469    -0.1378913528     1.7428766480
   69      S       3.6461398598    -3.5822933350     1.4374946019
   70      N       3.7403918870    -1.9888218656     1.5890176422
   71      C       2.9945822259     0.9316271945     2.1256015002
   72      S       4.7596153811     0.7751595356     2.3415409197
   73      C       2.6870292020     2.2980966389     2.1691950195
   74      C       4.9739797867     2.5253055306     2.3755688130
   75      S       1.2458935768     3.1917408741     1.9145892635
   76      C       3.8076867444     3.1480203876     2.1618265700
   77      C       6.2133898536     3.2164216177     2.5797115087
   78      C       2.1586809592     4.7171751531     1.7981313098
   79      C       3.4893773116     4.5252805465     1.9551684957
   80      N       7.2902183309     2.4468927754     2.8246906742
   81      S       6.6958811491     4.8387210573     2.1275581301
   82      C       8.4921677120     3.1499688526     2.8521991273
   83      C       8.3626634755     4.4129097240     2.3673671894
   84      C      -4.4348970413    -5.5423408353     1.4327618610
   85      H      -4.2317317803    -3.1406970338     0.1616375842
   86      H      -2.2628126823    -1.5639576846     0.2307506117
   87      H      -0.2165535474    -4.8411493523     2.2897599186
   88      H      -1.1215228720    -0.4029375721     1.6938264358
   89      H       1.5795843826     5.6233346357     1.6802663573
   90      H       4.1479415940     5.3853686613     1.9499224895
   91      H       9.4307756934     2.6777830859     3.1084561447
   92      H       9.1700911712     5.1227531247     2.2518342390
   93      H      -5.2852677968    -5.0369321355     0.9570112705
   94      C      -4.9940498659    -5.6091980570     2.9502628431
   95      H      -4.2141288107    -6.4936109504     0.9331344432
   96      H      -4.8884074130    -4.6350811215     3.4446856057
   97      H      -4.3320638443    -6.3100813864     3.4719793040
   98      C      -6.4982327297    -6.0774435111     3.0184178652
   99      H      -7.0534621193    -5.4279711873     2.3318350038
  100      C      -7.1205040688    -6.0178692906     4.4290912125
  101      H      -6.5265177066    -7.0828348025     2.5815948905
  102      H      -6.9033351867    -5.0681091233     4.9334941281
  103      H      -6.6265672077    -6.7499497600     5.0797697534
  104      C      -8.6221017949    -6.4054568693     4.3223244687
  105      H      -9.0746755188    -6.2556782407     5.3104911484
  106      C      -8.9661752319    -7.8542015331     4.0299986762
  107      H      -9.1506421868    -5.7080076389     3.6621974921
  108      H      -8.7160775558    -8.5190532070     4.8659438922
  109      H      -8.3742617756    -8.1948687308     3.1724420771
  110      H     -10.0058077084    -8.0483073609     3.7377894339
 ----------------------------------------------------------------

    9   -5663.5211336276      8.20E-06 Convergence criterion met
 Total energy in the final basis set = -5663.5211336276

                    Orbital Energies (a.u.)
 --------------------------------------------------------------

 Alpha MOs
 -- Occupied --
-88.991 -88.983 -88.933 -88.929 -88.919 -88.918 -88.914 -88.904
-14.388 -14.386 -14.371 -14.365 -14.354 -14.345 -14.339 -14.338
-14.332 -14.323 -10.271 -10.269 -10.268 -10.259 -10.258 -10.252
-10.247 -10.246 -10.244 -10.243 -10.240 -10.236 -10.236 -10.235
-10.233 -10.231 -10.229 -10.228 -10.228 -10.227 -10.226 -10.225
-10.225 -10.225 -10.221 -10.220 -10.218 -10.218 -10.215 -10.215
-10.212 -10.211 -10.210 -10.206 -10.204 -10.203 -10.193 -10.191
-10.186 -10.184 -10.183 -10.181 -10.180 -10.178 -10.177 -10.176
-10.174 -10.172 -10.171 -10.169  -8.046  -8.038  -7.992  -7.990
 -7.981  -7.977  -7.974  -7.964  -6.011  -6.005  -6.004  -6.003
 -5.997  -5.996  -5.956  -5.954  -5.952  -5.950  -5.948  -5.947
 -5.945  -5.942  -5.941  -5.939  -5.938  -5.937  -5.935  -5.933
 -5.931  -5.928  -5.924  -5.920  -1.040  -1.024  -0.964  -0.960
 -0.957  -0.950  -0.941  -0.934  -0.914  -0.914  -0.898  -0.893
 -0.846  -0.845  -0.831  -0.830  -0.809  -0.808  -0.804  -0.800
 -0.800  -0.799  -0.798  -0.795  -0.785  -0.784  -0.767  -0.766
 -0.750  -0.747  -0.740  -0.739  -0.726  -0.725  -0.711  -0.709
 -0.692  -0.691  -0.676  -0.675  -0.656  -0.653  -0.645  -0.645
 -0.635  -0.634  -0.627  -0.620  -0.611  -0.609  -0.596  -0.595
 -0.592  -0.585  -0.582  -0.582  -0.576  -0.572  -0.567  -0.560
 -0.550  -0.545  -0.540  -0.539  -0.525  -0.522  -0.514  -0.508
 -0.505  -0.504  -0.500  -0.498  -0.493  -0.485  -0.480  -0.476
 -0.475  -0.471  -0.468  -0.465  -0.463  -0.458  -0.453  -0.450
 -0.443  -0.442  -0.440  -0.436  -0.436  -0.434  -0.433  -0.430
 -0.430  -0.428  -0.425  -0.421  -0.419  -0.417  -0.415  -0.413
 -0.411  -0.408  -0.404  -0.402  -0.401  -0.399  -0.398  -0.395
 -0.395  -0.394  -0.392  -0.391  -0.389  -0.387  -0.382  -0.381
 -0.373  -0.372  -0.371  -0.367  -0.363  -0.360  -0.358  -0.355
 -0.353  -0.352  -0.350  -0.345  -0.344  -0.343  -0.341  -0.336
 -0.334  -0.332  -0.331  -0.327  -0.324  -0.323  -0.318  -0.315
 -0.314  -0.311  -0.309  -0.304  -0.303  -0.301  -0.299  -0.299
 -0.296  -0.292  -0.287  -0.285  -0.284  -0.282  -0.280  -0.276
 -0.270  -0.269  -0.267  -0.265  -0.258  -0.255  -0.251  -0.250
 -0.246  -0.242  -0.234  -0.231  -0.193  -0.190

          Ground-State Mulliken Net Atomic Charges

     Atom                 Charge (a.u.)
  ----------------------------------------
      1 C                     0.303313
      2 C                    -0.110645
      3 N                    -0.495358
      4 C                    -0.071795
      5 C                     0.081634
      6 C                     0.014207
      7 C                    -0.007691
      8 C                     0.094898
      9 C                     0.197547
     10 N                    -0.502570
     11 N                    -0.548257
     12 C                     0.252169
     13 C                     0.251466
     14 S                     0.611558
     15 N                    -0.583203
     16 C                    -0.202492
     17 S                     0.334551
     18 C                    -0.116841
     19 C                    -0.238524
     20 S                     0.300086
     21 C                     0.164036
     22 C                     0.081009
     23 C                    -0.325252
     24 C                    -0.066411
     25 N                    -0.459485
     26 S                     0.245719
     27 C                     0.110861
     28 C                    -0.288189
     29 C                    -0.244220
     30 H                     0.091642
     31 H                     0.104035
     32 H                     0.130700
     33 H                     0.125596
     34 H                     0.135585
     35 H                     0.134871
     36 H                     0.113163
     37 H                     0.132284
     38 H                     0.099271
     39 C                    -0.179241
     40 H                     0.108963
     41 H                     0.099743
     42 H                     0.096983
     43 C                    -0.169422
     44 H                     0.103874
     45 C                    -0.173977
     46 H                     0.105131
     47 H                     0.091736
     48 H                     0.087010
     49 C                    -0.169728
     50 H                     0.095139
     51 C                    -0.328053
     52 H                     0.091729
     53 H                     0.104833
     54 H                     0.098787
     55 H                     0.096893
     56 C                     0.263605
     57 C                    -0.123306
     58 N                    -0.470392
     59 C                    -0.077200
     60 C                     0.078106
     61 C                     0.028624
     62 C                     0.030066
     63 C                     0.047007
     64 C                     0.231027
     65 N                    -0.512702
     66 N                    -0.565367
     67 C                     0.198389
     68 C                     0.322980
     69 S                     0.629775
     70 N                    -0.565739
     71 C                    -0.236624
     72 S                     0.354867
     73 C                    -0.133877
     74 C                    -0.223224
     75 S                     0.323971
     76 C                     0.118665
     77 C                     0.049534
     78 C                    -0.328511
     79 C                    -0.050499
     80 N                    -0.440023
     81 S                     0.273323
     82 C                     0.125303
     83 C                    -0.314332
     84 C                    -0.228569
     85 H                     0.088084
     86 H                     0.098280
     87 H                     0.114907
     88 H                     0.118781
     89 H                     0.138082
     90 H                     0.119633
     91 H                     0.120483
     92 H                     0.134989
     93 H                     0.087350
     94 C                    -0.188176
     95 H                     0.121385
     96 H                     0.094479
     97 H                     0.115966
     98 C                    -0.172044
     99 H                     0.088547
    100 C                    -0.177945
    101 H                     0.100052
    102 H                     0.094424
    103 H                     0.094015
    104 C                    -0.176787
    105 H                     0.088229
    106 C                    -0.319178
    107 H                     0.092969
    108 H                     0.104480
    109 H                     0.100498
    110 H                     0.103954
  ----------------------------------------
  Sum of atomic charges =     0.000000

                    Cartesian Multipole Moments
 -----------------------------------------------------------------
    Charge (ESU x 10^10)
                 0.0000
    Dipole Moment (Debye)
         X      -0.0193      Y       3.8317      Z      -1.8702
       Tot       4.2638
    Quadrupole Moments (Debye-Ang)
        XX    -389.2811     XY       9.2256     YY    -434.7503
        XZ       5.0567     YZ       3.7946     ZZ    -444.1362

 Total job time:  102.95s(wall), 1109.01s(cpu)
        *  Thank you very much for using Q-Chem.  Have a nice day.  *
