 Q-Chem 4.4, Q-Chem, Inc., Pleasanton, CA (2016)
 Q-Chem 4.4.2 for Intel X86 Linux

User input:
--------------------------------------------------------------
$comment
SP
$end

$rem
MEM_STATIC 5000
MEM_TOTAL 20000
JOBTYPE SP
EXCHANGE B3LYP
BASIS 6-31g(d,p)
$end

$molecule
0 1
C           3.811000    -28.338000     -3.187000
C           5.129000    -28.201000     -3.638000
N           3.329000    -27.491000     -2.216000
C           6.002000    -27.281000     -3.027000
C           4.124000    -26.585000     -1.746000
C           5.431000    -26.355000     -2.111000
C           6.355000    -25.347000     -1.412000
C           7.748000    -25.538000     -1.277000
C           5.846000    -24.106000     -0.979000
N           8.562000    -24.575000     -0.727000
N           4.548000    -23.772000     -0.959000
C           6.649000    -23.141000     -0.404000
C           8.036000    -23.406000     -0.333000
S           4.356000    -22.295000     -0.249000
N           5.977000    -22.057000      0.006000
C           8.944000    -22.404000      0.318000
S           8.651000    -20.606000      0.672000
C          10.246000    -22.668000      0.741000
C          10.338000    -20.302000      0.827000
S          11.161000    -24.082000      0.801000
C          11.023000    -21.490000      0.883000
C          10.803000    -19.002000      1.332000
C          12.671000    -23.166000      0.914000
C          12.425000    -21.789000      1.005000
N          11.855000    -18.965000      2.150000
S          10.151000    -17.386000      0.843000
C          12.157000    -17.615000      2.457000
C          11.191000    -16.697000      2.062000
C           2.881000    -29.428000     -3.687000
H           5.490000    -28.830000     -4.447000
H           6.991000    -27.132000     -3.449000
H           3.631000    -25.985000     -0.982000
H           8.278000    -26.437000     -1.585000
H          13.559000    -23.775000      1.017000
H          13.236000    -21.072000      1.061000
H          13.067000    -17.410000      3.004000
H          11.370000    -15.635000      2.170000
H           3.426000    -30.375000     -3.585000
C           2.624000    -29.144000     -5.187000
H           2.021000    -29.457000     -3.006000
H           3.556000    -29.114000     -5.766000
H           2.134000    -28.164000     -5.234000
C           1.644000    -30.211000     -5.668000
H           2.124000    -31.178000     -5.860000
C           0.879000    -29.770000     -6.999000
H           0.812000    -30.310000     -4.960000
H           0.783000    -28.679000     -7.066000
H          -0.138000    -30.174000     -7.082000
C           1.706000    -30.108000     -8.225000
H           1.218000    -29.753000     -9.141000
C           1.874000    -31.644000     -8.474000
H           2.639000    -29.530000     -8.188000
H           0.882000    -32.085000     -8.629000
H           2.405000    -32.136000     -7.649000
H           2.486000    -31.707000     -9.382000
C           2.867000    -19.215000     -0.444000
C           2.159000    -19.356000      0.762000
N           2.405000    -19.675000     -1.584000
C           0.981000    -20.107000      0.868000
C           1.178000    -20.327000     -1.581000
C           0.502000    -20.682000     -0.380000
C          -0.635000    -21.610000     -0.536000
C          -1.412000    -21.706000     -1.767000
C          -1.100000    -22.488000      0.496000
N          -2.418000    -22.502000     -2.020000
N          -0.535000    -22.588000      1.704000
C          -2.260000    -23.208000      0.296000
C          -2.873000    -23.207000     -1.018000
S          -1.419000    -23.639000      2.547000
N          -2.598000    -23.895000      1.386000
C          -4.037000    -24.034000     -1.367000
S          -5.344000    -24.561000     -0.322000
C          -4.316000    -24.585000     -2.622000
C          -6.336000    -25.150000     -1.602000
S          -3.431000    -24.434000     -4.187000
C          -5.568000    -25.219000     -2.683000
C          -7.732000    -25.568000     -1.578000
C          -4.826000    -25.276000     -4.973000
C          -5.792000    -25.628000     -4.022000
N          -8.284000    -25.799000     -0.398000
S          -8.893000    -25.572000     -2.853000
C          -9.611000    -26.166000     -0.431000
C         -10.174000    -26.040000     -1.682000
C           4.320000    -18.676000     -0.407000
H           2.482000    -18.723000      1.583000
H           0.409000    -20.222000      1.784000
H           0.930000    -20.920000     -2.460000
H          -1.101000    -21.088000     -2.608000
H          -4.772000    -25.458000     -6.039000
H          -6.658000    -26.188000     -4.356000
H         -10.149000    -26.321000      0.495000
H         -11.202000    -26.137000     -2.005000
H           4.786000    -18.952000      0.547000
C           4.397000    -17.196000     -0.620000
H           4.873000    -19.190000     -1.202000
H           3.543000    -16.788000     -0.064000
H           4.032000    -17.058000     -1.645000
C           5.735000    -16.596000     -0.310000
H           5.872000    -16.534000      0.777000
C           5.990000    -15.195000     -0.923000
H           6.477000    -17.328000     -0.652000
H           5.444000    -14.391000     -0.414000
H           5.567000    -15.155000     -1.934000
C           7.442000    -14.778000     -0.897000
H           8.030000    -15.603000     -1.319000
C           7.985000    -14.436000      0.531000
H           7.674000    -13.880000     -1.483000
H           7.547000    -13.532000      0.971000
H           9.063000    -14.264000      0.429000
H           7.741000    -15.284000      1.184000
$end

--------------------------------------------------------------

             Standard Nuclear Orientation (Angstroms)
    I     Atom           X                Y                Z
 ----------------------------------------------------------------
    1      C       1.2948318416    -5.5792089136    -0.4699298913
    2      C       0.1345525979    -6.1980632565     0.0097214185
    3      N       1.2307802434    -4.2983629116    -0.9678303954
    4      C      -1.1175092467    -5.5673033380    -0.1180794525
    5      C       0.0822513988    -3.7029071457    -0.9764862509
    6      C      -1.1191358748    -4.2068748688    -0.5325727987
    7      C      -2.4671867100    -3.4903842956    -0.6994296362
    8      C      -3.6887527863    -4.1735774011    -0.8896361082
    9      C      -2.5472935692    -2.0921757951    -0.5405369671
   10      N      -4.8911879249    -3.5075278752    -0.9443422895
   11      N      -1.4950665675    -1.2699278426    -0.4244049668
   12      C      -3.7453456276    -1.4098967493    -0.6168623827
   13      C      -4.9216605084    -2.1765743567    -0.7827652076
   14      S      -2.0043574646     0.2993830728    -0.4049362021
   15      N      -3.6148887418    -0.0809476914    -0.5090876062
   16      C      -6.2435997372    -1.4775136439    -0.9094924553
   17      S      -6.7102327823     0.2533387712    -0.4295210831
   18      C      -7.4116702464    -2.0670038788    -1.3910955579
   19      C      -8.3856093186    -0.1407207833    -0.4140120815
   20      S      -7.7327167138    -3.5784737676    -2.0638577305
   21      C      -8.5803271632    -1.3734171116    -0.9851948222
   22      C      -9.3865753275     0.9279164508    -0.2823628848
   23      C      -9.4650348584    -3.4161797492    -1.7403465290
   24      C      -9.7676610123    -2.1536799585    -1.2117278673
   25      N     -10.5156210365     0.8464418727    -0.9865039786
   26      S      -9.2954559628     2.3226991790     0.8674020488
   27      C     -11.3483355179     1.9446498978    -0.6571428909
   28      C     -10.7325050545     2.9386633161     0.0942525872
   29      C       2.6398154597    -6.2804400090    -0.5178257965
   30      H       0.1964803123    -7.1857118070     0.4582281618
   31      H      -1.9889223020    -6.0274430445     0.3372410254
   32      H       0.1597475257    -2.7018361148    -1.3990926179
   33      H      -3.7783702558    -5.2515026738    -1.0080033991
   34      H     -10.0671529710    -4.2424241226    -2.0936283060
   35      H     -10.7802359497    -1.8848056653    -0.9336188770
   36      H     -12.3575482435     1.9510297804    -1.0454507220
   37      H     -11.3083230151     3.7735955708     0.4722351347
   38      H       2.4743606139    -7.2396757506    -1.0245105961
   39      C       3.0609102733    -6.5418808169     0.9488141941
   40      H       3.2992120143    -5.6725724611    -1.1501984936
   41      H       2.3158356699    -7.1381562446     1.4911097314
   42      H       3.1534820027    -5.5566635524     1.4215576941
   43      C       4.4391309365    -7.1958738480     0.8935790715
   44      H       4.3974393251    -8.2619757211     0.6405146413
   45      C       5.2309125997    -7.0495563804     2.2730499833
   46      H       5.0936666675    -6.6459938337     0.2061898465
   47      H       4.9283862794    -6.1462334643     2.8175419803
   48      H       6.3203699038    -6.9879029374     2.1561071101
   49      C       4.8432543822    -8.1612072422     3.2297121325
   50      H       5.3341843580    -8.0345531572     4.2024256060
   51      C       5.3062647093    -9.5841113987     2.7709243837
   52      H       3.7748482006    -8.0642586382     3.4643420522
   53      H       6.4007030718    -9.5918974914     2.7022654618
   54      H       4.8445859858    -9.8769061042     1.8192027770
   55      H       4.9504390398   -10.2543870946     3.5628180536
   56      C      -1.7505411936     3.3555670034     1.1237439748
   57      C      -1.2902582378     4.0187611393    -0.0268620127
   58      N      -0.9386525257     2.7168060163     1.9345862483
   59      C       0.0367677526     3.9401692355    -0.4692943050
   60      C       0.4164251246     2.6982052697     1.6278932850
   61      C       0.9276188225     3.1714539563     0.3868781022
   62      C       2.3338188846     2.8264769760     0.1007290703
   63      C       3.3152809080     2.5797280075     1.1515160340
   64      C       2.8793336888     2.7173336719    -1.2193596909
   65      N       4.5726191373     2.2489384866     1.0124481727
   66      N       2.1673595488     2.8834571955    -2.3391743179
   67      C       4.2382129690     2.5340376001    -1.3737930159
   68      C       5.0510206581     2.2647523053    -0.2036669156
   69      S       3.1943254945     2.7324049318    -3.5717448676
   70      N       4.5864991310     2.5509269819    -2.6593763458
   71      C       6.4820889452     1.9361916918    -0.2723508370
   72      S       7.6605679195     2.4700399285    -1.4573387556
   73      C       7.1837105969     1.1007792050     0.6030233886
   74      C       9.0289710997     1.8912085421    -0.5845203537
   75      S       6.6288894218     0.2281713325     2.0815293792
   76      C       8.5673357519     1.0816806585     0.3613672777
   77      C      10.4471213281     2.1424547615    -0.8077719313
   78      C       8.3605910754    -0.1911301626     2.3948672783
   79      C       9.1829274540     0.3055380559     1.3757772130
   80      N      10.8039513113     2.6567062984    -1.9733973942
   81      S      11.7521198392     2.1134230940     0.3190368584
   82      C      12.1516856959     2.8979456661    -2.1221340615
   83      C      12.8606256734     2.7349874739    -0.9522217845
   84      C      -3.2770529956     3.2036623859     1.3468710810
   85      H      -1.9775283575     4.7289907263    -0.4766316388
   86      H       0.4204085415     4.4517339155    -1.3471247689
   87      H       1.0320837960     1.9660901510     2.1482449483
   88      H       2.9684620392     2.6174822550     2.1831251116
   89      H       8.5865394229    -0.7888362301     3.2689901536
   90      H      10.2417077022     0.0764304368     1.4158532017
   91      H      12.5172512278     3.3666889493    -3.0263390030
   92      H      13.8935158236     2.9556280394    -0.7177485909
   93      H      -3.7845689487     3.1658515216     0.3750450184
   94      C      -3.8519421424     4.2936986261     2.1971777692
   95      H      -3.4347784484     2.2353019965     1.8361877860
   96      H      -3.3349781129     5.2055469494     1.8712992221
   97      H      -3.3714072474     4.1483505734     3.1722952792
   98      C      -5.3497017494     4.3488313811     2.2017097298
   99      H      -5.7089923935     4.7773243342     1.2575243548
  100      C      -5.9791841357     5.1400164440     3.3770280364
  101      H      -5.6869874809     3.3050571149     2.1905018565
  102      H      -5.8791372776     6.2275696797     3.2729531321
  103      H      -5.4124924230     4.9445284464     4.2953389562
  104      C      -7.4575978842     4.8845947384     3.5556940392
  105      H      -7.6050157498     3.7972025835     3.5729935916
  106      C      -8.3556662441     5.5085573986     2.4353633650
  107      H      -7.8857266702     5.2858231899     4.4827029239
  108      H      -8.3772255215     6.6049986474     2.4387963723
  109      H      -9.3788268619     5.1581212672     2.6153879969
  110      H      -7.9481562601     5.1799470621     1.4704800251
 ----------------------------------------------------------------

    9   -5663.4968895673      8.42E-06 Convergence criterion met
 Total energy in the final basis set = -5663.4968895673

                    Orbital Energies (a.u.)
 --------------------------------------------------------------

 Alpha MOs
 -- Occupied --
-88.991 -88.985 -88.928 -88.926 -88.920 -88.919 -88.909 -88.902
-14.385 -14.380 -14.375 -14.368 -14.352 -14.347 -14.346 -14.336
-14.336 -14.319 -10.273 -10.270 -10.267 -10.260 -10.256 -10.253
-10.243 -10.243 -10.242 -10.240 -10.240 -10.240 -10.236 -10.236
-10.235 -10.233 -10.233 -10.232 -10.232 -10.232 -10.231 -10.230
-10.229 -10.225 -10.224 -10.224 -10.224 -10.223 -10.221 -10.210
-10.209 -10.208 -10.207 -10.204 -10.204 -10.203 -10.200 -10.195
-10.185 -10.184 -10.183 -10.180 -10.178 -10.178 -10.177 -10.176
-10.175 -10.175 -10.173 -10.173  -8.047  -8.039  -7.988  -7.986
 -7.980  -7.978  -7.967  -7.963  -6.012  -6.006  -6.004  -6.004
 -5.998  -5.996  -5.952  -5.950  -5.949  -5.947  -5.945  -5.944
 -5.943  -5.942  -5.941  -5.938  -5.937  -5.935  -5.932  -5.929
 -5.928  -5.924  -5.923  -5.920  -1.041  -1.025  -0.980  -0.965
 -0.954  -0.948  -0.941  -0.939  -0.918  -0.907  -0.903  -0.888
 -0.841  -0.839  -0.838  -0.824  -0.814  -0.809  -0.808  -0.803
 -0.800  -0.800  -0.794  -0.788  -0.787  -0.782  -0.771  -0.760
 -0.754  -0.742  -0.739  -0.737  -0.721  -0.718  -0.712  -0.703
 -0.696  -0.689  -0.682  -0.671  -0.658  -0.655  -0.652  -0.637
 -0.636  -0.630  -0.628  -0.618  -0.613  -0.609  -0.602  -0.594
 -0.594  -0.586  -0.584  -0.583  -0.578  -0.577  -0.568  -0.553
 -0.547  -0.544  -0.543  -0.533  -0.525  -0.517  -0.517  -0.507
 -0.503  -0.502  -0.500  -0.493  -0.491  -0.484  -0.480  -0.474
 -0.471  -0.471  -0.468  -0.463  -0.462  -0.457  -0.456  -0.454
 -0.449  -0.445  -0.444  -0.440  -0.434  -0.432  -0.431  -0.431
 -0.430  -0.428  -0.423  -0.422  -0.419  -0.418  -0.414  -0.414
 -0.411  -0.405  -0.404  -0.404  -0.402  -0.401  -0.399  -0.397
 -0.395  -0.394  -0.393  -0.389  -0.388  -0.385  -0.383  -0.379
 -0.378  -0.375  -0.372  -0.371  -0.368  -0.367  -0.361  -0.358
 -0.349  -0.348  -0.348  -0.346  -0.342  -0.342  -0.340  -0.339
 -0.338  -0.332  -0.329  -0.328  -0.327  -0.323  -0.322  -0.319
 -0.317  -0.313  -0.308  -0.306  -0.304  -0.301  -0.296  -0.293
 -0.291  -0.290  -0.287  -0.286  -0.286  -0.283  -0.280  -0.279
 -0.271  -0.271  -0.269  -0.261  -0.256  -0.255  -0.247  -0.244
 -0.243  -0.241  -0.231  -0.228  -0.196  -0.190

          Ground-State Mulliken Net Atomic Charges

     Atom                 Charge (a.u.)
  ----------------------------------------
      1 C                     0.243533
      2 C                    -0.111891
      3 N                    -0.473800
      4 C                    -0.095383
      5 C                     0.093974
      6 C                     0.045975
      7 C                     0.037672
      8 C                     0.041345
      9 C                     0.246700
     10 N                    -0.529380
     11 N                    -0.573556
     12 C                     0.249184
     13 C                     0.302241
     14 S                     0.626467
     15 N                    -0.602875
     16 C                    -0.221715
     17 S                     0.307791
     18 C                    -0.095538
     19 C                    -0.232616
     20 S                     0.279597
     21 C                     0.135748
     22 C                     0.042729
     23 C                    -0.316925
     24 C                    -0.039302
     25 N                    -0.411696
     26 S                     0.273439
     27 C                     0.091576
     28 C                    -0.292414
     29 C                    -0.223791
     30 H                     0.082747
     31 H                     0.102721
     32 H                     0.113162
     33 H                     0.116218
     34 H                     0.135389
     35 H                     0.115110
     36 H                     0.116636
     37 H                     0.132315
     38 H                     0.107084
     39 C                    -0.180037
     40 H                     0.124722
     41 H                     0.101758
     42 H                     0.115046
     43 C                    -0.176449
     44 H                     0.095023
     45 C                    -0.180719
     46 H                     0.098645
     47 H                     0.088449
     48 H                     0.084313
     49 C                    -0.180400
     50 H                     0.086815
     51 C                    -0.314045
     52 H                     0.089307
     53 H                     0.105977
     54 H                     0.101083
     55 H                     0.100481
     56 C                     0.252384
     57 C                    -0.124151
     58 N                    -0.476034
     59 C                    -0.045592
     60 C                     0.042295
     61 C                     0.032830
     62 C                     0.027399
     63 C                     0.054135
     64 C                     0.216250
     65 N                    -0.488202
     66 N                    -0.561258
     67 C                     0.261166
     68 C                     0.287780
     69 S                     0.605531
     70 N                    -0.582847
     71 C                    -0.224456
     72 S                     0.337553
     73 C                    -0.119418
     74 C                    -0.184878
     75 S                     0.262987
     76 C                     0.156318
     77 C                     0.048403
     78 C                    -0.296545
     79 C                    -0.099478
     80 N                    -0.430861
     81 S                     0.263015
     82 C                     0.130120
     83 C                    -0.314735
     84 C                    -0.226985
     85 H                     0.095206
     86 H                     0.122296
     87 H                     0.115819
     88 H                     0.107086
     89 H                     0.136331
     90 H                     0.107354
     91 H                     0.121545
     92 H                     0.138180
     93 H                     0.107727
     94 C                    -0.182237
     95 H                     0.124139
     96 H                     0.087852
     97 H                     0.109283
     98 C                    -0.176425
     99 H                     0.098942
    100 C                    -0.173942
    101 H                     0.104535
    102 H                     0.090094
    103 H                     0.092393
    104 C                    -0.183382
    105 H                     0.098817
    106 C                    -0.322676
    107 H                     0.089668
    108 H                     0.100648
    109 H                     0.096155
    110 H                     0.113423
  ----------------------------------------
  Sum of atomic charges =     0.000000

                    Cartesian Multipole Moments
 -----------------------------------------------------------------
    Charge (ESU x 10^10)
                 0.0000
    Dipole Moment (Debye)
         X       0.6722      Y       0.6603      Z       1.0606
       Tot       1.4187
    Quadrupole Moments (Debye-Ang)
        XX    -373.4943     XY     -10.2703     YY    -413.1293
        XZ       0.5740     YZ      -9.1345     ZZ    -448.1154

 Total job time:  87.36s(wall), 950.54s(cpu)
        *  Thank you very much for using Q-Chem.  Have a nice day.  *
