 Q-Chem 4.4, Q-Chem, Inc., Pleasanton, CA (2016)
 Q-Chem 4.4.2 for Intel X86 Linux

User input:
--------------------------------------------------------------
$comment
SP
$end

$rem
MEM_STATIC 5000
MEM_TOTAL 20000
JOBTYPE SP
EXCHANGE B3LYP
BASIS 6-31g(d,p)
$end

$molecule
0 1
C         -11.120000    -19.321000     10.700000
C          -9.783000    -19.406000     10.367000
N         -12.099000    -19.186000      9.840000
C          -9.480000    -19.529000      9.023000
C         -11.810000    -19.317000      8.523000
C         -10.501000    -19.442000      8.049000
C         -10.193000    -19.206000      6.627000
C          -8.927000    -18.843000      6.118000
C         -11.039000    -19.726000      5.601000
N          -8.540000    -18.894000      4.832000
N         -12.277000    -20.276000      5.826000
C         -10.664000    -19.835000      4.261000
C          -9.386000    -19.291000      3.848000
S         -12.903000    -20.869000      4.435000
N         -11.669000    -20.457000      3.461000
C          -8.890000    -19.331000      2.502000
S          -9.482000    -20.255000      1.144000
C          -7.686000    -18.820000      2.187000
C          -7.951000    -20.032000      0.229000
S          -6.655000    -17.772000      3.146000
C          -7.240000    -19.121000      0.911000
C          -7.495000    -20.639000     -0.995000
C          -5.582000    -17.676000      1.778000
C          -6.035000    -18.400000      0.678000
N          -8.474000    -21.302000     -1.673000
S          -5.883000    -20.676000     -1.566000
C          -7.806000    -21.950000     -2.698000
C          -6.486000    -21.829000     -2.770000
C         -11.374000    -19.308000     12.200000
H          -9.026000    -19.179000     11.112000
H          -8.438000    -19.490000      8.720000
H         -12.694000    -19.147000      7.909000
H          -8.118000    -18.573000      6.795000
H          -4.708000    -17.041000      1.845000
H          -5.440000    -18.502000     -0.223000
H          -8.422000    -22.539000     -3.365000
H          -5.775000    -22.163000     -3.515000
H         -10.566000    -19.845000     12.711000
C         -12.685000    -20.027000     12.668000
H         -11.320000    -18.289000     12.603000
H         -12.701000    -21.006000     12.173000
H         -13.564000    -19.462000     12.334000
C         -12.798000    -20.228000     14.215000
H         -11.897000    -20.678000     14.647000
C         -14.042000    -21.018000     14.684000
H         -12.915000    -19.201000     14.584000
H         -13.906000    -22.069000     14.400000
H         -14.948000    -20.685000     14.162000
C         -14.223000    -21.008000     16.203000
H         -13.532000    -21.662000     16.748000
C         -15.626000    -21.510000     16.469000
H         -14.175000    -19.994000     16.618000
H         -15.997000    -21.454000     17.500000
H         -15.585000    -22.594000     16.307000
H         -16.370000    -21.077000     15.788000
C           2.867000    -19.215000     -0.444000
C           2.159000    -19.356000      0.762000
N           2.405000    -19.675000     -1.584000
C           0.981000    -20.107000      0.868000
C           1.178000    -20.327000     -1.581000
C           0.502000    -20.682000     -0.380000
C          -0.635000    -21.610000     -0.536000
C          -1.412000    -21.706000     -1.767000
C          -1.100000    -22.488000      0.496000
N          -2.418000    -22.502000     -2.020000
N          -0.535000    -22.588000      1.704000
C          -2.260000    -23.208000      0.296000
C          -2.873000    -23.207000     -1.018000
S          -1.419000    -23.639000      2.547000
N          -2.598000    -23.895000      1.386000
C          -4.037000    -24.034000     -1.367000
S          -5.344000    -24.561000     -0.322000
C          -4.316000    -24.585000     -2.622000
C          -6.336000    -25.150000     -1.602000
S          -3.431000    -24.434000     -4.187000
C          -5.568000    -25.219000     -2.683000
C          -7.732000    -25.568000     -1.578000
C          -4.826000    -25.276000     -4.973000
C          -5.792000    -25.628000     -4.022000
N          -8.284000    -25.799000     -0.398000
S          -8.893000    -25.572000     -2.853000
C          -9.611000    -26.166000     -0.431000
C         -10.174000    -26.040000     -1.682000
C           4.320000    -18.676000     -0.407000
H           2.482000    -18.723000      1.583000
H           0.409000    -20.222000      1.784000
H           0.930000    -20.920000     -2.460000
H          -1.101000    -21.088000     -2.608000
H          -4.772000    -25.458000     -6.039000
H          -6.658000    -26.188000     -4.356000
H         -10.149000    -26.321000      0.495000
H         -11.202000    -26.137000     -2.005000
H           4.786000    -18.952000      0.547000
C           4.397000    -17.196000     -0.620000
H           4.873000    -19.190000     -1.202000
H           3.543000    -16.788000     -0.064000
H           4.032000    -17.058000     -1.645000
C           5.735000    -16.596000     -0.310000
H           5.872000    -16.534000      0.777000
C           5.990000    -15.195000     -0.923000
H           6.477000    -17.328000     -0.652000
H           5.444000    -14.391000     -0.414000
H           5.567000    -15.155000     -1.934000
C           7.442000    -14.778000     -0.897000
H           8.030000    -15.603000     -1.319000
C           7.985000    -14.436000      0.531000
H           7.674000    -13.880000     -1.483000
H           7.547000    -13.532000      0.971000
H           9.063000    -14.264000      0.429000
H           7.741000    -15.284000      1.184000
$end

--------------------------------------------------------------

             Standard Nuclear Orientation (Angstroms)
    I     Atom           X                Y                Z
 ----------------------------------------------------------------
    1      C       9.5481893023     3.4417926554    -0.3197574419
    2      C       8.3172479701     3.8899388293    -0.7552243677
    3      N       9.7302049757     2.4741753627     0.5444491708
    4      C       7.2126290882     3.1471527970    -0.3792455969
    5      C       8.6538371226     1.7360294513     0.9074145388
    6      C       7.3525203884     2.0589564623     0.5123513755
    7      C       6.1913948776     1.4803686264     1.2121139525
    8      C       4.8973133779     2.0441747979     1.2450027507
    9      C       6.1678595624     0.0974724585     1.5668480469
   10      N       3.7663484992     1.4234931629     1.6216176086
   11      N       7.2567183731    -0.7363241086     1.4965716273
   12      C       5.0111382214    -0.5967749297     1.9247898065
   13      C       3.7695135463     0.1384126698     2.0576670424
   14      S       6.8289091681    -2.2716135204     1.8684206638
   15      N       5.2559897870    -1.9833066421     2.1582132872
   16      C       2.5167030334    -0.4555543163     2.4278035553
   17      S       2.0863495775    -2.1459619595     2.5034468169
   18      C       1.3952330054     0.2819593561     2.5191302175
   19      C       0.3275013632    -1.7753474027     2.4998678072
   20      S       1.2319437098     2.0293121461     2.5513921636
   21      C       0.2273428419    -0.4475682752     2.6658101446
   22      C      -0.8124801738    -2.6462765526     2.3714718919
   23      C      -0.4737436648     1.8048405788     2.8201152472
   24      C      -0.8425962825     0.4638330973     2.8910495909
   25      N      -0.5076794033    -3.9677072365     2.5078956358
   26      S      -2.4073568384    -2.1724193395     1.9742543618
   27      C      -1.6786967010    -4.6280868650     2.1771839263
   28      C      -2.7278432971    -3.9072706233     1.8004341877
   29      C      10.7178168302     4.2424732393    -0.8725386358
   30      H       8.2268575776     4.8811970780    -1.1897812241
   31      H       6.2244113978     3.5310520494    -0.6140671470
   32      H       8.9238030007     0.9908382140     1.6551848542
   33      H       4.7229478518     3.0459079767     0.8553396887
   34      H      -1.0966716078     2.6771655737     2.9704478148
   35      H      -1.8803651166     0.1606694384     2.9768262942
   36      H      -1.6425676749    -5.7084690129     2.2294821861
   37      H      -3.7507934212    -4.1885660217     1.5846844659
   38      H      10.4403876835     4.6696038660    -1.8435929578
   39      C      12.0212350341     3.4216515700    -1.1589976607
   40      H      10.9338962499     5.1152586044    -0.2438563704
   41      H      11.7161881588     2.5353934084    -1.7292737998
   42      H      12.4676711889     3.0828754179    -0.2159454466
   43      C      13.1156229778     4.2005295196    -1.9602736233
   44      H      12.7157095717     4.6786221806    -2.8616179943
   45      C      14.3692311343     3.3740978455    -2.3305090591
   46      H      13.4392691453     4.9670004948    -1.2444842672
   47      H      14.0866568381     2.6561175617    -3.1105148791
   48      H      14.7149434025     2.7694083651    -1.4825452274
   49      C      15.4958575119     4.2231778986    -2.9221154053
   50      H      15.3299744562     4.5413865737    -3.9581887864
   51      C      16.7363655752     3.3559327153    -2.9081677532
   52      H      15.7243320106     5.0972985109    -2.3004743848
   53      H      17.6890794306     3.8304088564    -3.1745259730
   54      H      16.6055120129     2.6440559137    -3.7322367823
   55      H      16.8550629031     2.7966833770    -1.9711847641
   56      C      -8.3238136464     3.9787893809    -0.6929679982
   57      C      -7.0003586878     4.2689478072    -1.0669413396
   58      N      -8.7132944589     2.7625836698    -0.3867126064
   59      C      -6.0334635478     3.2757614423    -1.2709404400
   60      C      -7.7768300652     1.7378205574    -0.4461853123
   61      C      -6.4797741668     1.9166920017    -1.0039065713
   62      C      -5.7136904705     0.6797910814    -1.2518599617
   63      C      -5.9253573727    -0.5457150580    -0.4892081245
   64      C      -4.6840279370     0.5597002245    -2.2405491208
   65      N      -5.3225551613    -1.6964859973    -0.6375885110
   66      N      -4.3254336478     1.5449195126    -3.0707551736
   67      C      -3.9302565208    -0.5949571020    -2.2914913464
   68      C      -4.3209405287    -1.7287685400    -1.4765044575
   69      S      -3.1000129573     0.9864945949    -3.9557476834
   70      N      -2.9602014502    -0.5007866535    -3.1994770768
   71      C      -3.6606094745    -3.0401055325    -1.5471032600
   72      S      -1.9854431735    -3.3901527457    -1.9334810708
   73      C      -4.2633658320    -4.2842343027    -1.3342761545
   74      C      -2.0632597091    -5.0471201176    -1.4668026854
   75      S      -5.9550003981    -4.6972106451    -0.8619690138
   76      C      -3.3497111306    -5.3511766843    -1.3413501278
   77      C      -0.9861269430    -6.0111165463    -1.2807599760
   78      C      -5.4039299211    -6.4088583241    -0.6635539122
   79      C      -4.0496668167    -6.5352930791    -0.9973902448
   80      N       0.2025010633    -5.7075178992    -1.7761954653
   81      S      -0.9355640521    -7.4121189916    -0.2766695706
   82      C       1.1898810130    -6.6406233872    -1.5501379871
   83      C       0.8016244924    -7.6361655132    -0.6806561014
   84      C      -9.4051118145     5.0811658235    -0.8295675973
   85      H      -6.7140936315     5.3160035433    -1.0389127300
   86      H      -5.0022224868     3.4735059232    -1.5482561343
   87      H      -8.1579934705     0.7177680950    -0.4449884783
   88      H      -6.7123819298    -0.5405694745     0.2634484170
   89      H      -6.1382312336    -7.1453878180    -0.3623531703
   90      H      -3.6071077837    -7.5245473756    -0.9723016201
   91      H       2.2020490341    -6.4421807048    -1.8773709296
   92      H       1.3718085229    -8.4333470024    -0.2224925448
   93      H      -9.1358926260     5.7545276020    -1.6527036394
   94      C      -9.6101442131     5.8548262866     0.4357818420
   95      H     -10.3397799261     4.5806662543    -1.1087193521
   96      H      -8.6021776701     5.9873405262     0.8497376662
   97      H     -10.0015101050     5.1101150954     1.1394379940
   98      C     -10.4266984203     7.1009967294     0.2725566781
   99      H      -9.8230106937     7.8808933566    -0.2085923422
  100      C     -11.0268992209     7.6750332820     1.5816922842
  101      H     -11.2085756414     6.8524540945    -0.4556236359
  102      H     -10.2853603105     8.1719595393     2.2194989471
  103      H     -11.3646151731     6.8511915379     2.2219131184
  104      C     -12.1139537109     8.6988048104     1.3513156505
  105      H     -12.8305863664     8.2654606593     0.6420177698
  106      C     -11.5977303511    10.0666230238     0.7913301346
  107      H     -12.6764399649     8.9835252400     2.2491839544
  108      H     -10.9836137128    10.6361784880     1.4992336080
  109      H     -12.4830594169    10.6713592332     0.5620735919
  110      H     -10.9827669845     9.8461967328    -0.0908723977
 ----------------------------------------------------------------

    9   -5663.4972365184      9.38E-06 Convergence criterion met
 Total energy in the final basis set = -5663.4972365184

                    Orbital Energies (a.u.)
 --------------------------------------------------------------

 Alpha MOs
 -- Occupied --
-88.994 -88.990 -88.929 -88.926 -88.923 -88.919 -88.914 -88.907
-14.387 -14.383 -14.381 -14.368 -14.356 -14.348 -14.338 -14.337
-14.335 -14.323 -10.271 -10.270 -10.264 -10.264 -10.259 -10.256
-10.255 -10.251 -10.243 -10.243 -10.239 -10.239 -10.237 -10.235
-10.235 -10.235 -10.232 -10.232 -10.232 -10.232 -10.229 -10.225
-10.223 -10.223 -10.222 -10.220 -10.220 -10.219 -10.219 -10.217
-10.213 -10.208 -10.208 -10.206 -10.204 -10.199 -10.198 -10.192
-10.185 -10.183 -10.182 -10.178 -10.178 -10.178 -10.175 -10.175
-10.175 -10.174 -10.174 -10.165  -8.049  -8.044  -7.989  -7.987
 -7.982  -7.978  -7.973  -7.967  -6.014  -6.009  -6.009  -6.007
 -6.004  -6.002  -5.953  -5.951  -5.950  -5.948  -5.947  -5.946
 -5.944  -5.943  -5.942  -5.939  -5.938  -5.937  -5.934  -5.934
 -5.931  -5.929  -5.928  -5.924  -1.044  -1.017  -0.984  -0.966
 -0.960  -0.955  -0.944  -0.940  -0.921  -0.917  -0.905  -0.878
 -0.844  -0.843  -0.840  -0.829  -0.815  -0.810  -0.809  -0.804
 -0.801  -0.800  -0.799  -0.794  -0.788  -0.787  -0.772  -0.767
 -0.755  -0.750  -0.742  -0.739  -0.724  -0.721  -0.714  -0.709
 -0.697  -0.694  -0.685  -0.673  -0.660  -0.653  -0.653  -0.638
 -0.637  -0.632  -0.629  -0.623  -0.614  -0.605  -0.603  -0.597
 -0.592  -0.591  -0.586  -0.579  -0.576  -0.573  -0.569  -0.567
 -0.549  -0.545  -0.541  -0.540  -0.528  -0.518  -0.518  -0.513
 -0.508  -0.508  -0.504  -0.493  -0.492  -0.482  -0.481  -0.476
 -0.475  -0.472  -0.471  -0.466  -0.464  -0.458  -0.458  -0.455
 -0.448  -0.448  -0.446  -0.442  -0.437  -0.434  -0.432  -0.431
 -0.428  -0.427  -0.425  -0.424  -0.420  -0.419  -0.418  -0.416
 -0.410  -0.409  -0.408  -0.407  -0.404  -0.401  -0.400  -0.399
 -0.397  -0.395  -0.390  -0.390  -0.386  -0.386  -0.381  -0.379
 -0.379  -0.375  -0.372  -0.369  -0.366  -0.362  -0.358  -0.353
 -0.352  -0.351  -0.350  -0.344  -0.344  -0.342  -0.341  -0.339
 -0.336  -0.332  -0.330  -0.329  -0.328  -0.323  -0.323  -0.320
 -0.318  -0.315  -0.309  -0.309  -0.305  -0.305  -0.303  -0.300
 -0.293  -0.291  -0.289  -0.288  -0.287  -0.286  -0.284  -0.281
 -0.271  -0.271  -0.269  -0.265  -0.259  -0.254  -0.252  -0.248
 -0.245  -0.242  -0.233  -0.228  -0.198  -0.192

          Ground-State Mulliken Net Atomic Charges

     Atom                 Charge (a.u.)
  ----------------------------------------
      1 C                     0.295405
      2 C                    -0.113760
      3 N                    -0.484557
      4 C                    -0.088965
      5 C                     0.077126
      6 C                     0.048473
      7 C                     0.046921
      8 C                     0.046816
      9 C                     0.228618
     10 N                    -0.529111
     11 N                    -0.570070
     12 C                     0.179244
     13 C                     0.302914
     14 S                     0.625371
     15 N                    -0.561559
     16 C                    -0.212515
     17 S                     0.347317
     18 C                    -0.122199
     19 C                    -0.212525
     20 S                     0.299017
     21 C                     0.175930
     22 C                     0.030746
     23 C                    -0.302419
     24 C                    -0.104793
     25 N                    -0.434660
     26 S                     0.289953
     27 C                     0.131959
     28 C                    -0.311048
     29 C                    -0.241905
     30 H                     0.097940
     31 H                     0.091463
     32 H                     0.125750
     33 H                     0.104605
     34 H                     0.127386
     35 H                     0.103413
     36 H                     0.112842
     37 H                     0.151576
     38 H                     0.099465
     39 C                    -0.177004
     40 H                     0.111958
     41 H                     0.092754
     42 H                     0.111280
     43 C                    -0.179706
     44 H                     0.085450
     45 C                    -0.170090
     46 H                     0.089873
     47 H                     0.092425
     48 H                     0.093643
     49 C                    -0.172565
     50 H                     0.095848
     51 C                    -0.317653
     52 H                     0.093205
     53 H                     0.091855
     54 H                     0.098183
     55 H                     0.101931
     56 C                     0.270128
     57 C                    -0.123156
     58 N                    -0.481454
     59 C                    -0.044197
     60 C                     0.046022
     61 C                     0.034836
     62 C                     0.027558
     63 C                     0.049558
     64 C                     0.214396
     65 N                    -0.497877
     66 N                    -0.559023
     67 C                     0.261173
     68 C                     0.292411
     69 S                     0.606454
     70 N                    -0.581983
     71 C                    -0.223499
     72 S                     0.344449
     73 C                    -0.131307
     74 C                    -0.176488
     75 S                     0.252337
     76 C                     0.157988
     77 C                     0.051880
     78 C                    -0.302057
     79 C                    -0.100841
     80 N                    -0.428773
     81 S                     0.253993
     82 C                     0.133044
     83 C                    -0.310183
     84 C                    -0.224084
     85 H                     0.091545
     86 H                     0.120000
     87 H                     0.111551
     88 H                     0.106199
     89 H                     0.137579
     90 H                     0.109810
     91 H                     0.123991
     92 H                     0.139906
     93 H                     0.097758
     94 C                    -0.178306
     95 H                     0.118294
     96 H                     0.088359
     97 H                     0.109821
     98 C                    -0.172807
     99 H                     0.097422
    100 C                    -0.172984
    101 H                     0.095460
    102 H                     0.090597
    103 H                     0.092054
    104 C                    -0.178651
    105 H                     0.092025
    106 C                    -0.320074
    107 H                     0.090077
    108 H                     0.102633
    109 H                     0.102536
    110 H                     0.102353
  ----------------------------------------
  Sum of atomic charges =     0.000000

                    Cartesian Multipole Moments
 -----------------------------------------------------------------
    Charge (ESU x 10^10)
                 0.0000
    Dipole Moment (Debye)
         X      -1.7590      Y       0.7233      Z      -1.5104
       Tot       2.4286
    Quadrupole Moments (Debye-Ang)
        XX    -460.5483     XY      -1.9991     YY    -390.2910
        XZ     -12.6076     YZ      -9.0758     ZZ    -452.2565

 Total job time:  89.12s(wall), 956.52s(cpu)
        *  Thank you very much for using Q-Chem.  Have a nice day.  *
