 Q-Chem 4.4, Q-Chem, Inc., Pleasanton, CA (2016)
 Q-Chem 4.4.2 for Intel X86 Linux

User input:
--------------------------------------------------------------
$comment
SP
$end

$rem
MEM_STATIC 5000
MEM_TOTAL 20000
JOBTYPE SP
EXCHANGE B3LYP
BASIS 6-31g(d,p)
$end

$molecule
0 1
C          -4.540000    -14.114000      5.883000
C          -4.659000    -15.180000      4.961000
N          -3.899000    -14.316000      7.064000
C          -4.276000    -16.527000      5.313000
C          -3.385000    -15.592000      7.339000
C          -3.571000    -16.765000      6.555000
C          -2.995000    -18.139000      6.809000
C          -1.570000    -18.317000      6.959000
C          -3.694000    -19.327000      6.719000
N          -0.906000    -19.433000      7.174000
N          -5.014000    -19.474000      6.551000
C          -3.041000    -20.555000      6.919000
C          -1.600000    -20.563000      7.053000
S          -5.362000    -21.048000      6.677000
N          -3.862000    -21.641000      6.759000
C          -0.779000    -21.762000      6.965000
S          -1.429000    -23.318000      6.429000
C           0.537000    -21.988000      7.311000
C           0.025000    -24.267000      6.776000
S           1.677000    -20.841000      7.738000
C           0.951000    -23.323000      7.146000
C           0.376000    -25.615000      6.465000
C           2.822000    -22.196000      7.764000
C           2.332000    -23.410000      7.411000
N          -0.663000    -26.462000      6.513000
S           1.810000    -26.255000      5.684000
C          -0.223000    -27.747000      6.132000
C           1.096000    -27.841000      5.740000
C          -5.100000    -12.739000      5.415000
H          -5.164000    -15.079000      4.005000
H          -4.397000    -17.338000      4.602000
H          -2.820000    -15.675000      8.267000
H          -0.970000    -17.425000      7.137000
H           3.831000    -21.926000      8.046000
H           2.938000    -24.308000      7.368000
H          -0.946000    -28.537000      6.283000
H           1.692000    -28.735000      5.616000
H          -6.138000    -12.895000      5.098000
C          -4.302000    -12.137000      4.239000
H          -5.169000    -11.991000      6.214000
H          -3.967000    -12.830000      3.458000
H          -3.421000    -11.568000      4.561000
C          -5.211000    -11.151000      3.360000
H          -6.048000    -11.730000      2.950000
C          -4.375000    -10.336000      2.342000
H          -5.689000    -10.383000      3.982000
H          -3.571000    -10.932000      1.894000
H          -3.796000     -9.562000      2.863000
C          -5.207000     -9.692000      1.184000
H          -5.747000    -10.489000      0.658000
C          -4.242000     -8.999000      0.225000
H          -5.880000     -8.877000      1.476000
H          -3.393000     -9.675000      0.065000
H          -3.818000     -8.098000      0.686000
H          -4.764000     -8.718000     -0.698000
C           2.867000    -19.215000     -0.444000
C           2.159000    -19.356000      0.762000
N           2.405000    -19.675000     -1.584000
C           0.981000    -20.107000      0.868000
C           1.178000    -20.327000     -1.581000
C           0.502000    -20.682000     -0.380000
C          -0.635000    -21.610000     -0.536000
C          -1.412000    -21.706000     -1.767000
C          -1.100000    -22.488000      0.496000
N          -2.418000    -22.502000     -2.020000
N          -0.535000    -22.588000      1.704000
C          -2.260000    -23.208000      0.296000
C          -2.873000    -23.207000     -1.018000
S          -1.419000    -23.639000      2.547000
N          -2.598000    -23.895000      1.386000
C          -4.037000    -24.034000     -1.367000
S          -5.344000    -24.561000     -0.322000
C          -4.316000    -24.585000     -2.622000
C          -6.336000    -25.150000     -1.602000
S          -3.431000    -24.434000     -4.187000
C          -5.568000    -25.219000     -2.683000
C          -7.732000    -25.568000     -1.578000
C          -4.826000    -25.276000     -4.973000
C          -5.792000    -25.628000     -4.022000
N          -8.284000    -25.799000     -0.398000
S          -8.893000    -25.572000     -2.853000
C          -9.611000    -26.166000     -0.431000
C         -10.174000    -26.040000     -1.682000
C           4.320000    -18.676000     -0.407000
H           2.482000    -18.723000      1.583000
H           0.409000    -20.222000      1.784000
H           0.930000    -20.920000     -2.460000
H          -1.101000    -21.088000     -2.608000
H          -4.772000    -25.458000     -6.039000
H          -6.658000    -26.188000     -4.356000
H         -10.149000    -26.321000      0.495000
H         -11.202000    -26.137000     -2.005000
H           4.786000    -18.952000      0.547000
C           4.397000    -17.196000     -0.620000
H           4.873000    -19.190000     -1.202000
H           3.543000    -16.788000     -0.064000
H           4.032000    -17.058000     -1.645000
C           5.735000    -16.596000     -0.310000
H           5.872000    -16.534000      0.777000
C           5.990000    -15.195000     -0.923000
H           6.477000    -17.328000     -0.652000
H           5.444000    -14.391000     -0.414000
H           5.567000    -15.155000     -1.934000
C           7.442000    -14.778000     -0.897000
H           8.030000    -15.603000     -1.319000
C           7.985000    -14.436000      0.531000
H           7.674000    -13.880000     -1.483000
H           7.547000    -13.532000      0.971000
H           9.063000    -14.264000      0.429000
H           7.741000    -15.284000      1.184000
$end

--------------------------------------------------------------

             Standard Nuclear Orientation (Angstroms)
    I     Atom           X                Y                Z
 ----------------------------------------------------------------
    1      C       5.8539366140     3.1512943924     4.3124153820
    2      C       4.5788999898     3.2097979978     3.7029402512
    3      N       6.3286912340     1.9606218642     4.7633621432
    4      C       3.6892431327     2.0724758712     3.7062654579
    5      C       5.5239302961     0.8202741011     4.6220687882
    6      C       4.1784064708     0.7874711139     4.1598236156
    7      C       3.3061093285    -0.4306613979     3.9612817325
    8      C       3.7503987627    -1.5177758420     3.1212828730
    9      C       1.9877303022    -0.5419880729     4.3581798486
   10      N       3.1200140235    -2.6373953334     2.8355482493
   11      N       1.2985246198     0.3217572068     5.1139394792
   12      C       1.2518668317    -1.7034116349     4.0683639373
   13      C       1.8427758847    -2.7043772102     3.2061601284
   14      S      -0.1431211647    -0.3355794127     5.4364638978
   15      N      -0.0495502970    -1.6443661606     4.4948191977
   16      C       1.0980019796    -3.7928781602     2.5898294444
   17      S      -0.6695608235    -3.8682144534     2.6211053141
   18      C       1.5261345478    -4.9475197249     1.9684170522
   19      C      -0.8089038413    -5.4823017584     1.9066602879
   20      S       3.0931550912    -5.3321866747     1.5279446302
   21      C       0.4824216707    -5.8017353481     1.5661421475
   22      C      -1.9376832047    -6.2191642925     1.4377074602
   23      C       2.3774529689    -6.7729660658     0.7798462288
   24      C       1.0271770699    -6.8800995508     0.8413475550
   25      N      -3.0465414480    -6.0177665709     2.1651044315
   26      S      -2.2039281368    -7.0145809732    -0.1025337352
   27      C      -4.1109983738    -6.7389618498     1.5847641668
   28      C      -3.8199652278    -7.4042348871     0.4121719556
   29      C       6.6602740325     4.4825550937     4.3409445375
   30      H       4.1462423199     4.1327078236     3.3284982742
   31      H       2.7042812787     2.1419181207     3.2558091115
   32      H       5.9854843225    -0.1156383852     4.9356508325
   33      H       4.8067313550    -1.5455515492     2.8553167764
   34      H       3.0919581390    -7.4405209624     0.3168583002
   35      H       0.4737744267    -7.7028110734     0.4027358075
   36      H      -5.0147409510    -6.7691902991     2.1780310503
   37      H      -4.4013765731    -8.1720192947    -0.0800637105
   38      H       6.0205951185     5.2471747476     4.7974931898
   39      C       7.0819530968     4.9568129890     2.9340151805
   40      H       7.5483525559     4.4515936461     4.9836139120
   41      H       6.3491416269     4.8358307846     2.1273023097
   42      H       8.0177409790     4.5013499435     2.5869410475
   43      C       7.2805210921     6.5472935040     2.8886226441
   44      H       6.3230088124     7.0200477312     3.1407806795
   45      C       7.9534770738     7.0158355256     1.5744523276
   46      H       7.9687309870     6.8892917598     3.6725845907
   47      H       7.5971432133     6.4540496334     0.7028108926
   48      H       9.0173837863     6.7440810473     1.5776162961
   49      C       7.7928368919     8.5419110236     1.2691454223
   50      H       6.7224227821     8.7798423891     1.2361712070
   51      C       8.4305934178     8.8316692461    -0.0874907803
   52      H       8.3341938434     9.2219128434     1.9376872506
   53      H       8.1209949079     8.0348251497    -0.7749245943
   54      H       9.5236896256     8.7584353490    -0.0252374540
   55      H       8.1571999276     9.8387991311    -0.4256022919
   56      C       2.1559109847    -0.5618094410    -5.3546547722
   57      C       2.1747050806    -0.8743321266    -3.9844148834
   58      N       1.1953925410     0.1515658124    -5.8960825764
   59      C       1.1147771571    -0.5682545806    -3.1208233522
   60      C       0.1665709202     0.5988140758    -5.0762429193
   61      C       0.0122038207     0.1589879717    -3.7315772371
   62      C      -1.2732791404     0.4985015789    -3.0908330860
   63      C      -2.0730146963     1.6518753972    -3.4889007634
   64      C      -1.8534042847    -0.2472345107    -2.0140482878
   65      N      -3.2280513732     2.0311250030    -3.0075266764
   66      N      -1.3109981174    -1.3525770695    -1.4920306854
   67      C      -2.9841319107     0.2388844893    -1.3902347309
   68      C      -3.6660525656     1.3849423234    -1.9593583216
   69      S      -2.2646026432    -1.8110565126    -0.2766537856
   70      N      -3.3318558739    -0.5232710185    -0.3546093029
   71      C      -4.9409624788     1.9042646988    -1.4440574546
   72      S      -5.5379262557     1.8686102073     0.2052957539
   73      C      -5.9486909794     2.5201505306    -2.1934805068
   74      C      -6.8599754248     2.9345453649    -0.0868570044
   75      S      -6.0134611249     2.9308584819    -3.9491498399
   76      C      -6.9934544984     3.0293240817    -1.4045619530
   77      C      -7.7455015742     3.5976323158     0.8619712911
   78      C      -7.5387175375     3.8407871813    -3.6050457308
   79      C      -7.8868386953     3.7311317732    -2.2529183880
   80      N      -7.7530653669     3.1542866553     2.1085074575
   81      S      -8.6283788970     5.0685905674     0.6876972113
   82      C      -8.5878022510     3.8321935809     2.9689512584
   83      C      -9.1217792259     4.9742734980     2.4136422875
   84      C       3.1879470403    -1.2342465368    -6.2958396277
   85      H       3.1217457910    -1.2271528487    -3.5873123389
   86      H       1.1091432308    -0.7878160159    -2.0572322489
   87      H      -0.7371659939     0.9575572235    -5.5665050370
   88      H      -1.7099921049     2.2529642691    -4.3212665281
   89      H      -8.0376520527     4.3248330444    -4.4352023136
   90      H      -8.8132436790     4.1885217154    -1.9247717030
   91      H      -8.6113404025     3.5646735235     4.0171993084
   92      H      -9.7090210725     5.7662094232     2.8591829747
   93      H       3.4547446599    -2.2208543938    -5.8972521633
   94      C       4.4154081857    -0.4021702551    -6.5024460115
   95      H       2.6875568500    -1.3945715055    -7.2580950833
   96      H       4.6280039490     0.0331365431    -5.5174449795
   97      H       4.0446329965     0.4899404775    -7.0216359572
   98      C       5.5488119010    -1.1266021232    -7.1634592388
   99      H       6.0250649241    -1.8061767188    -6.4454457104
  100      C       6.6402983100    -0.2190873899    -7.7868928182
  101      H       5.0881021000    -1.7793914356    -7.9151005048
  102      H       7.2948411651     0.2496432699    -7.0415887063
  103      H       6.1679414044     0.6517589479    -8.2571646648
  104      C       7.5634656024    -0.9471367865    -8.7358792387
  105      H       6.9366427315    -1.5033855458    -9.4444929602
  106      C       8.5518896229    -1.9380403259    -8.0343629300
  107      H       8.2235225080    -0.2983857770    -9.3250065672
  108      H       9.3101395601    -1.4473717490    -7.4123007303
  109      H       9.0778009792    -2.4794971157    -8.8295445383
  110      H       7.9529986344    -2.5919453564    -7.3872255451
 ----------------------------------------------------------------

    9   -5663.4928269597      9.21E-06 Convergence criterion met
 Total energy in the final basis set = -5663.4928269597

                    Orbital Energies (a.u.)
 --------------------------------------------------------------

 Alpha MOs
 -- Occupied --
-88.993 -88.987 -88.934 -88.927 -88.920 -88.919 -88.913 -88.907
-14.388 -14.381 -14.377 -14.376 -14.354 -14.350 -14.347 -14.337
-14.335 -14.331 -10.272 -10.269 -10.268 -10.264 -10.260 -10.254
-10.252 -10.250 -10.242 -10.240 -10.239 -10.238 -10.238 -10.237
-10.236 -10.234 -10.234 -10.234 -10.234 -10.232 -10.231 -10.229
-10.229 -10.228 -10.228 -10.227 -10.227 -10.225 -10.224 -10.220
-10.218 -10.216 -10.208 -10.203 -10.203 -10.202 -10.202 -10.199
-10.196 -10.189 -10.183 -10.182 -10.182 -10.181 -10.180 -10.177
-10.176 -10.175 -10.173 -10.170  -8.048  -8.042  -7.995  -7.987
 -7.979  -7.979  -7.974  -7.966  -6.014  -6.008  -6.008  -6.006
 -6.002  -6.000  -5.959  -5.955  -5.952  -5.951  -5.948  -5.944
 -5.943  -5.943  -5.939  -5.939  -5.939  -5.935  -5.935  -5.935
 -5.931  -5.931  -5.927  -5.922  -1.043  -1.037  -0.978  -0.975
 -0.964  -0.963  -0.936  -0.923  -0.920  -0.916  -0.904  -0.899
 -0.852  -0.837  -0.835  -0.835  -0.814  -0.812  -0.809  -0.806
 -0.803  -0.796  -0.796  -0.792  -0.784  -0.781  -0.769  -0.766
 -0.753  -0.752  -0.746  -0.737  -0.720  -0.719  -0.714  -0.710
 -0.699  -0.693  -0.682  -0.680  -0.655  -0.652  -0.648  -0.645
 -0.634  -0.633  -0.625  -0.624  -0.611  -0.609  -0.600  -0.598
 -0.592  -0.592  -0.584  -0.583  -0.578  -0.576  -0.575  -0.567
 -0.548  -0.546  -0.545  -0.540  -0.529  -0.523  -0.520  -0.515
 -0.506  -0.503  -0.502  -0.500  -0.488  -0.488  -0.483  -0.477
 -0.476  -0.471  -0.471  -0.468  -0.467  -0.461  -0.454  -0.452
 -0.449  -0.443  -0.442  -0.441  -0.438  -0.436  -0.432  -0.431
 -0.430  -0.428  -0.427  -0.423  -0.421  -0.419  -0.417  -0.416
 -0.411  -0.408  -0.404  -0.404  -0.401  -0.400  -0.399  -0.397
 -0.396  -0.395  -0.394  -0.392  -0.388  -0.386  -0.384  -0.382
 -0.381  -0.376  -0.372  -0.370  -0.367  -0.365  -0.362  -0.355
 -0.355  -0.353  -0.347  -0.347  -0.346  -0.342  -0.340  -0.338
 -0.337  -0.335  -0.333  -0.331  -0.330  -0.326  -0.325  -0.320
 -0.316  -0.316  -0.312  -0.309  -0.303  -0.303  -0.303  -0.302
 -0.300  -0.299  -0.294  -0.289  -0.285  -0.284  -0.283  -0.277
 -0.275  -0.268  -0.266  -0.263  -0.261  -0.255  -0.250  -0.250
 -0.245  -0.241  -0.238  -0.228  -0.202  -0.194

          Ground-State Mulliken Net Atomic Charges

     Atom                 Charge (a.u.)
  ----------------------------------------
      1 C                     0.281940
      2 C                    -0.113743
      3 N                    -0.492908
      4 C                    -0.067261
      5 C                     0.052892
      6 C                     0.049697
      7 C                     0.006828
      8 C                     0.057710
      9 C                     0.242897
     10 N                    -0.493773
     11 N                    -0.553717
     12 C                     0.182604
     13 C                     0.298975
     14 S                     0.621898
     15 N                    -0.539132
     16 C                    -0.236905
     17 S                     0.334518
     18 C                    -0.089407
     19 C                    -0.194516
     20 S                     0.290162
     21 C                     0.116600
     22 C                     0.020374
     23 C                    -0.310758
     24 C                    -0.070623
     25 N                    -0.415556
     26 S                     0.280228
     27 C                     0.113393
     28 C                    -0.304759
     29 C                    -0.228175
     30 H                     0.090229
     31 H                     0.105889
     32 H                     0.104738
     33 H                     0.106348
     34 H                     0.120256
     35 H                     0.115750
     36 H                     0.119186
     37 H                     0.144246
     38 H                     0.112276
     39 C                    -0.185183
     40 H                     0.119845
     41 H                     0.104649
     42 H                     0.107459
     43 C                    -0.188619
     44 H                     0.090745
     45 C                    -0.181990
     46 H                     0.094952
     47 H                     0.088555
     48 H                     0.094425
     49 C                    -0.174710
     50 H                     0.095913
     51 C                    -0.316100
     52 H                     0.097116
     53 H                     0.099038
     54 H                     0.102072
     55 H                     0.098269
     56 C                     0.269233
     57 C                    -0.123418
     58 N                    -0.482797
     59 C                    -0.044018
     60 C                     0.046287
     61 C                     0.034829
     62 C                     0.026556
     63 C                     0.050492
     64 C                     0.210422
     65 N                    -0.488209
     66 N                    -0.561533
     67 C                     0.259258
     68 C                     0.283611
     69 S                     0.621848
     70 N                    -0.586659
     71 C                    -0.223945
     72 S                     0.335395
     73 C                    -0.120390
     74 C                    -0.185343
     75 S                     0.259797
     76 C                     0.156816
     77 C                     0.048120
     78 C                    -0.296859
     79 C                    -0.100196
     80 N                    -0.431387
     81 S                     0.261929
     82 C                     0.129789
     83 C                    -0.315105
     84 C                    -0.223556
     85 H                     0.091822
     86 H                     0.121321
     87 H                     0.111066
     88 H                     0.105618
     89 H                     0.135678
     90 H                     0.106846
     91 H                     0.120811
     92 H                     0.137466
     93 H                     0.097162
     94 C                    -0.178128
     95 H                     0.117231
     96 H                     0.088962
     97 H                     0.109391
     98 C                    -0.172893
     99 H                     0.097344
    100 C                    -0.172758
    101 H                     0.094935
    102 H                     0.090509
    103 H                     0.091907
    104 C                    -0.178322
    105 H                     0.091725
    106 C                    -0.320383
    107 H                     0.089531
    108 H                     0.102687
    109 H                     0.102003
    110 H                     0.102669
  ----------------------------------------
  Sum of atomic charges =     0.000000

                    Cartesian Multipole Moments
 -----------------------------------------------------------------
    Charge (ESU x 10^10)
                 0.0000
    Dipole Moment (Debye)
         X      -1.6566      Y      -0.3694      Z      -0.4569
       Tot       1.7577
    Quadrupole Moments (Debye-Ang)
        XX    -418.5447     XY      -7.8782     YY    -397.6904
        XZ     -15.3716     YZ      18.3076     ZZ    -460.5274

 Total job time:  82.66s(wall), 886.52s(cpu)
        *  Thank you very much for using Q-Chem.  Have a nice day.  *
