 Q-Chem 4.4, Q-Chem, Inc., Pleasanton, CA (2016)
 Q-Chem 4.4.2 for Intel X86 Linux

User input:
--------------------------------------------------------------
$comment
SP
$end

$rem
MEM_STATIC 5000
MEM_TOTAL 20000
JOBTYPE SP
EXCHANGE B3LYP
BASIS 6-31g(d,p)
$end

$molecule
0 1
C           5.260000    -21.881000     -3.850000
C           6.227000    -22.846000     -4.042000
N           5.564000    -20.671000     -3.291000
C           7.577000    -22.568000     -3.865000
C           6.863000    -20.408000     -3.065000
C           7.977000    -21.223000     -3.427000
C           9.434000    -20.822000     -3.166000
C          10.400000    -21.603000     -2.569000
C           9.842000    -19.518000     -3.467000
N          11.710000    -21.243000     -2.455000
N           9.046000    -18.572000     -3.880000
C          11.176000    -19.165000     -3.378000
C          12.062000    -20.072000     -2.860000
S          10.069000    -17.296000     -4.160000
N          11.494000    -17.922000     -3.704000
C          13.563000    -19.938000     -2.720000
S          14.470000    -20.597000     -1.394000
C          14.379000    -19.114000     -3.490000
C          15.973000    -19.818000     -1.987000
S          14.090000    -18.268000     -5.025000
C          15.708000    -19.142000     -3.138000
C          17.307000    -20.134000     -1.610000
C          15.791000    -17.926000     -5.103000
C          16.575000    -18.436000     -4.058000
N          18.116000    -19.173000     -1.564000
S          17.730000    -21.533000     -0.677000
C          19.233000    -19.432000     -0.863000
C          19.248000    -20.707000     -0.357000
C           3.717000    -22.283000     -3.984000
H           5.972000    -23.823000     -4.443000
H           8.310000    -23.313000     -4.161000
H           7.004000    -19.458000     -2.553000
H          10.089000    -22.596000     -2.249000
H          16.131000    -17.257000     -5.883000
H          17.638000    -18.263000     -3.932000
H          19.948000    -18.643000     -0.672000
H          20.007000    -21.149000      0.275000
H           3.597000    -23.353000     -3.771000
C           3.171000    -21.887000     -5.332000
H           3.238000    -21.653000     -3.225000
H           3.656000    -22.507000     -6.096000
H           3.343000    -20.827000     -5.556000
C           1.589000    -22.041000     -5.264000
H           1.238000    -23.006000     -4.879000
C           0.931000    -21.809000     -6.636000
H           1.241000    -21.276000     -4.560000
H           1.469000    -22.422000     -7.370000
H           1.054000    -20.755000     -6.915000
C          -0.628000    -21.942000     -6.664000
H          -0.874000    -22.966000     -6.360000
C          -1.236000    -21.503000     -8.026000
H          -1.115000    -21.376000     -5.860000
H          -0.802000    -22.080000     -8.852000
H          -1.009000    -20.441000     -8.186000
H          -2.327000    -21.610000     -8.060000
C           2.867000    -19.215000     -0.444000
C           2.159000    -19.356000      0.762000
N           2.405000    -19.675000     -1.584000
C           0.981000    -20.107000      0.868000
C           1.178000    -20.327000     -1.581000
C           0.502000    -20.682000     -0.380000
C          -0.635000    -21.610000     -0.536000
C          -1.412000    -21.706000     -1.767000
C          -1.100000    -22.488000      0.496000
N          -2.418000    -22.502000     -2.020000
N          -0.535000    -22.588000      1.704000
C          -2.260000    -23.208000      0.296000
C          -2.873000    -23.207000     -1.018000
S          -1.419000    -23.639000      2.547000
N          -2.598000    -23.895000      1.386000
C          -4.037000    -24.034000     -1.367000
S          -5.344000    -24.561000     -0.322000
C          -4.316000    -24.585000     -2.622000
C          -6.336000    -25.150000     -1.602000
S          -3.431000    -24.434000     -4.187000
C          -5.568000    -25.219000     -2.683000
C          -7.732000    -25.568000     -1.578000
C          -4.826000    -25.276000     -4.973000
C          -5.792000    -25.628000     -4.022000
N          -8.284000    -25.799000     -0.398000
S          -8.893000    -25.572000     -2.853000
C          -9.611000    -26.166000     -0.431000
C         -10.174000    -26.040000     -1.682000
C           4.320000    -18.676000     -0.407000
H           2.482000    -18.723000      1.583000
H           0.409000    -20.222000      1.784000
H           0.930000    -20.920000     -2.460000
H          -1.101000    -21.088000     -2.608000
H          -4.772000    -25.458000     -6.039000
H          -6.658000    -26.188000     -4.356000
H         -10.149000    -26.321000      0.495000
H         -11.202000    -26.137000     -2.005000
H           4.786000    -18.952000      0.547000
C           4.397000    -17.196000     -0.620000
H           4.873000    -19.190000     -1.202000
H           3.543000    -16.788000     -0.064000
H           4.032000    -17.058000     -1.645000
C           5.735000    -16.596000     -0.310000
H           5.872000    -16.534000      0.777000
C           5.990000    -15.195000     -0.923000
H           6.477000    -17.328000     -0.652000
H           5.444000    -14.391000     -0.414000
H           5.567000    -15.155000     -1.934000
C           7.442000    -14.778000     -0.897000
H           8.030000    -15.603000     -1.319000
C           7.985000    -14.436000      0.531000
H           7.674000    -13.880000     -1.483000
H           7.547000    -13.532000      0.971000
H           9.063000    -14.264000      0.429000
H           7.741000    -15.284000      1.184000
$end

--------------------------------------------------------------

             Standard Nuclear Orientation (Angstroms)
    I     Atom           X                Y                Z
 ----------------------------------------------------------------
    1      C      -0.6907549180     1.7929296225     0.2118229787
    2      C      -1.3917323433     2.3811025241     1.2442285613
    3      N      -1.2696106348     0.8551086170    -0.5971361184
    4      C      -2.7621894734     2.2013004417     1.3878651364
    5      C      -2.5854350349     0.6319132282    -0.4345447084
    6      C      -3.4714338666     1.3333699915     0.4367930443
    7      C      -4.9735354672     1.0377576841     0.5266548560
    8      C      -5.6948682551     0.8253510875     1.6816823219
    9      C      -5.7033389783     0.8726917141    -0.6555553879
   10      N      -7.0490481087     0.6720263526     1.7188905157
   11      N      -5.1819900232     0.8650622196    -1.8502260780
   12      C      -7.0797791818     0.7466700999    -0.6153444579
   13      C      -7.6946941340     0.6482103783     0.6045548350
   14      S      -6.4993667695     0.7294110941    -2.8498371427
   15      N      -7.7080290247     0.6212069019    -1.7737960628
   16      C      -9.1764995144     0.5643683420     0.9008322850
   17      S      -9.8484468313    -0.3740693818     2.1981477601
   18      C     -10.1959794579     1.0347509712     0.0779514752
   19      C     -11.5160739715    -0.0087257195     1.6476545908
   20      S     -10.1753571388     2.1391439665    -1.3132181161
   21      C     -11.4642616954     0.8013032441     0.5553311194
   22      C     -12.7165176454    -0.1611192337     2.3941478612
   23      C     -11.9094558883     2.1956475459    -1.2347460015
   24      C     -12.5083220489     1.4570748546    -0.2038964968
   25      N     -13.7379703834    -0.4998435223     1.7445186129
   26      S     -12.7475542737    -0.4972671293     4.0949301283
   27      C     -14.7325170562    -0.9879696931     2.5052950300
   28      C     -14.4129527207    -0.9973888007     3.8393399752
   29      C       0.8987916752     1.9653126741     0.1483035999
   30      H      -0.9135393764     3.0908802546     1.9134834153
   31      H      -3.2948596881     2.7920114584     2.1276305973
   32      H      -2.9430919473    -0.1785873155    -1.0667593885
   33      H      -5.1359917898     0.8665626272     2.6150250808
   34      H     -12.4298633735     2.7012421078    -2.0379341415
   35      H     -13.5763886914     1.3445120525    -0.0544399388
   36      H     -15.6155312629    -1.4054265851     2.0402760474
   37      H     -15.0174817709    -1.3778468397     4.6521531813
   38      H       1.2886967155     2.1459434781     1.1582618030
   39      C       1.2863211594     3.0419892086    -0.8328307125
   40      H       1.2287836294     1.0014028109    -0.2571653704
   41      H       0.9478697749     4.0073188965    -0.4367117228
   42      H       0.8482420400     2.8784878749    -1.8251582789
   43      C       2.8580022867     2.9344176364    -1.0548910444
   44      H       3.4506296374     2.9025169733    -0.1327055040
   45      C       3.3941224830     4.0855708289    -1.9247148556
   46      H       3.0257901111     1.9812034896    -1.5698425336
   47      H       3.0035641397     5.0238086189    -1.5110204879
   48      H       3.0032495035     3.9723125254    -2.9436735744
   49      C       4.9353062915     4.0611855802    -2.1951068451
   50      H       5.4385134145     4.1325827513    -1.2239255874
   51      C       5.3716700664     5.1314442321    -3.2350886114
   52      H       5.2904219374     3.0780138385    -2.5285842871
   53      H       5.0699095083     6.1357092150    -2.9126705447
   54      H       4.8818571210     4.9111497736    -4.1924425846
   55      H       6.4532292697     5.1328103875    -3.4170606514
   56      C       1.0659633802    -2.4897994468    -1.5222512814
   57      C       1.8240096088    -3.6056427828    -1.1274848125
   58      N       1.5923795130    -1.2922323277    -1.6378499414
   59      C       3.1549092078    -3.5074739896    -0.7008817820
   60      C       2.9427751926    -1.1370780100    -1.3497516142
   61      C       3.7231188787    -2.1689720640    -0.7567420081
   62      C       5.0503518412    -1.7605376813    -0.2568189958
   63      C       5.7879263615    -0.6296422318    -0.8094176831
   64      C       5.7517753096    -2.4330129899     0.7957564540
   65      N       6.9523940089    -0.1703526825    -0.4316224900
   66      N       5.2675948255    -3.4851226004     1.4644294880
   67      C       7.0479696994    -2.0602040170     1.0871214716
   68      C       7.6000146576    -0.8767559260     0.4569921357
   69      S       6.4118341760    -3.9457473331     2.5013707420
   70      N       7.5806050808    -2.8475914969     2.0201989105
   71      C       8.9221446415    -0.3269341773     0.7890980681
   72      S      10.3512649122    -1.1914308745     1.3260000260
   73      C       9.2905775173     1.0220454781     0.7578233927
   74      C      11.4184706577     0.1494988993     1.1460993907
   75      S       8.3475296611     2.4794646239     0.2660498935
   76      C      10.6586790706     1.2286655666     1.0002842740
   77      C      12.8746684244     0.1899430953     1.1904652697
   78      C       9.8833426487     3.4266914119     0.3957606463
   79      C      10.9358111311     2.6079943648     0.8241369280
   80      N      13.5033894993    -0.8593582631     1.6945897278
   81      S      13.9595515937     1.3043012959     0.4456187689
   82      C      14.8782967256    -0.7799406018     1.6891166959
   83      C      15.3527094421     0.3029131348     0.9818640114
   84      C      -0.4737052763    -2.6270907078    -1.6391723571
   85      H       1.3789831480    -4.5776672947    -1.3176920609
   86      H       3.7657930486    -4.3543051619    -0.4022802102
   87      H       3.3034190116    -0.1207985552    -1.1984039824
   88      H       5.3064152083    -0.0507094879    -1.5961259438
   89      H       9.8432629133     4.4876124911     0.1830728975
   90      H      11.9033389131     3.0662665084     0.9943974149
   91      H      15.4665719386    -1.6194840833     2.0355903839
   92      H      16.3617837155     0.5735282249     0.7006904285
   93      H      -0.8260556305    -3.3855809866    -0.9292500200
   94      C      -0.9243480760    -2.9584900445    -3.0279824761
   95      H      -0.9053988409    -1.6669014371    -1.3330559893
   96      H      -0.1823290466    -3.6770509041    -3.3994579814
   97      H      -0.6375126825    -2.0777311671    -3.6152500956
   98      C      -2.3594283200    -3.3790666968    -3.1280023387
   99      H      -2.4735925010    -4.4041302090    -2.7533113518
  100      C      -2.9751010613    -3.2985430325    -4.5485860269
  101      H      -2.9054893342    -2.7496839418    -2.4145272400
  102      H      -2.6315008396    -4.0969205490    -5.2180225279
  103      H      -2.6072292865    -2.3990844632    -5.0568129834
  104      C      -4.4836882596    -3.3816085036    -4.5601529064
  105      H      -4.8599811615    -2.6539386012    -3.8298425853
  106      C      -5.0500571459    -4.7994002013    -4.2136128846
  107      H      -4.9506868957    -3.1460223927    -5.5245363665
  108      H      -4.8380999695    -5.5628706002    -4.9717996066
  109      H      -6.1395037539    -4.6985269298    -4.1428833205
  110      H      -4.5818368114    -5.1161351615    -3.2726040200
 ----------------------------------------------------------------

   10   -5663.4913022517      3.15E-06 Convergence criterion met
 Total energy in the final basis set = -5663.4913022517

                    Orbital Energies (a.u.)
 --------------------------------------------------------------

 Alpha MOs
 -- Occupied --
-88.991 -88.987 -88.928 -88.922 -88.920 -88.920 -88.909 -88.904
-14.393 -14.384 -14.384 -14.380 -14.351 -14.346 -14.336 -14.330
-14.330 -14.330 -10.270 -10.265 -10.255 -10.255 -10.255 -10.252
-10.251 -10.250 -10.239 -10.238 -10.237 -10.236 -10.235 -10.234
-10.233 -10.232 -10.231 -10.228 -10.228 -10.227 -10.227 -10.226
-10.226 -10.226 -10.225 -10.225 -10.225 -10.222 -10.221 -10.220
-10.217 -10.215 -10.204 -10.203 -10.198 -10.198 -10.196 -10.194
-10.182 -10.180 -10.178 -10.178 -10.177 -10.176 -10.174 -10.174
-10.174 -10.172 -10.171 -10.171  -8.046  -8.043  -7.988  -7.982
 -7.981  -7.980  -7.967  -7.965  -6.011  -6.008  -6.006  -6.004
 -6.002  -6.001  -5.952  -5.949  -5.945  -5.945  -5.945  -5.944
 -5.942  -5.941  -5.940  -5.939  -5.937  -5.936  -5.932  -5.929
 -5.928  -5.926  -5.923  -5.921  -1.055  -1.041  -0.990  -0.979
 -0.975  -0.965  -0.934  -0.932  -0.925  -0.917  -0.908  -0.902
 -0.841  -0.838  -0.836  -0.830  -0.810  -0.807  -0.806  -0.803
 -0.799  -0.797  -0.794  -0.793  -0.782  -0.781  -0.768  -0.768
 -0.752  -0.747  -0.738  -0.737  -0.721  -0.720  -0.709  -0.704
 -0.693  -0.691  -0.681  -0.676  -0.657  -0.655  -0.648  -0.647
 -0.633  -0.632  -0.625  -0.621  -0.611  -0.609  -0.601  -0.598
 -0.592  -0.589  -0.581  -0.578  -0.576  -0.573  -0.570  -0.565
 -0.557  -0.546  -0.542  -0.541  -0.524  -0.521  -0.516  -0.510
 -0.504  -0.503  -0.502  -0.501  -0.489  -0.487  -0.482  -0.477
 -0.475  -0.472  -0.468  -0.465  -0.463  -0.459  -0.454  -0.451
 -0.445  -0.444  -0.441  -0.439  -0.438  -0.431  -0.428  -0.427
 -0.426  -0.423  -0.422  -0.421  -0.419  -0.416  -0.416  -0.414
 -0.412  -0.407  -0.403  -0.401  -0.399  -0.398  -0.397  -0.396
 -0.395  -0.393  -0.392  -0.390  -0.387  -0.387  -0.381  -0.380
 -0.377  -0.374  -0.371  -0.370  -0.364  -0.361  -0.358  -0.353
 -0.352  -0.348  -0.348  -0.346  -0.343  -0.341  -0.340  -0.339
 -0.339  -0.336  -0.331  -0.327  -0.327  -0.323  -0.322  -0.320
 -0.318  -0.313  -0.311  -0.310  -0.306  -0.301  -0.300  -0.300
 -0.296  -0.295  -0.287  -0.286  -0.284  -0.281  -0.279  -0.278
 -0.274  -0.270  -0.269  -0.266  -0.256  -0.254  -0.247  -0.245
 -0.243  -0.242  -0.235  -0.229  -0.195  -0.191

          Ground-State Mulliken Net Atomic Charges

     Atom                 Charge (a.u.)
  ----------------------------------------
      1 C                     0.250900
      2 C                    -0.107574
      3 N                    -0.467164
      4 C                    -0.088480
      5 C                     0.096635
      6 C                     0.022488
      7 C                     0.044291
      8 C                     0.044279
      9 C                     0.260811
     10 N                    -0.505048
     11 N                    -0.556091
     12 C                     0.212844
     13 C                     0.288694
     14 S                     0.590372
     15 N                    -0.535760
     16 C                    -0.224095
     17 S                     0.309527
     18 C                    -0.104438
     19 C                    -0.225744
     20 S                     0.263976
     21 C                     0.150548
     22 C                     0.036242
     23 C                    -0.311154
     24 C                    -0.043892
     25 N                    -0.395222
     26 S                     0.252678
     27 C                     0.122487
     28 C                    -0.318389
     29 C                    -0.238670
     30 H                     0.088645
     31 H                     0.101822
     32 H                     0.107636
     33 H                     0.108300
     34 H                     0.126977
     35 H                     0.121689
     36 H                     0.115788
     37 H                     0.129233
     38 H                     0.098035
     39 C                    -0.173050
     40 H                     0.148088
     41 H                     0.089363
     42 H                     0.117428
     43 C                    -0.197456
     44 H                     0.089675
     45 C                    -0.169478
     46 H                     0.107805
     47 H                     0.090143
     48 H                     0.090611
     49 C                    -0.189896
     50 H                     0.094255
     51 C                    -0.318727
     52 H                     0.097451
     53 H                     0.103118
     54 H                     0.104546
     55 H                     0.100718
     56 C                     0.270857
     57 C                    -0.123545
     58 N                    -0.474580
     59 C                    -0.044089
     60 C                     0.046001
     61 C                     0.038687
     62 C                     0.024636
     63 C                     0.050656
     64 C                     0.213774
     65 N                    -0.488325
     66 N                    -0.557509
     67 C                     0.259737
     68 C                     0.285379
     69 S                     0.601823
     70 N                    -0.584092
     71 C                    -0.223181
     72 S                     0.336328
     73 C                    -0.123785
     74 C                    -0.186338
     75 S                     0.263244
     76 C                     0.155429
     77 C                     0.048048
     78 C                    -0.298584
     79 C                    -0.099351
     80 N                    -0.431149
     81 S                     0.262602
     82 C                     0.130323
     83 C                    -0.315355
     84 C                    -0.245173
     85 H                     0.091303
     86 H                     0.118412
     87 H                     0.104704
     88 H                     0.106943
     89 H                     0.136239
     90 H                     0.107376
     91 H                     0.121215
     92 H                     0.137976
     93 H                     0.090991
     94 C                    -0.177104
     95 H                     0.151138
     96 H                     0.084991
     97 H                     0.112154
     98 C                    -0.175589
     99 H                     0.096329
    100 C                    -0.172271
    101 H                     0.095632
    102 H                     0.090125
    103 H                     0.092858
    104 C                    -0.179785
    105 H                     0.089610
    106 C                    -0.319814
    107 H                     0.088539
    108 H                     0.102529
    109 H                     0.102160
    110 H                     0.103100
  ----------------------------------------
  Sum of atomic charges =     0.000000

                    Cartesian Multipole Moments
 -----------------------------------------------------------------
    Charge (ESU x 10^10)
                 0.0000
    Dipole Moment (Debye)
         X       0.6257      Y       0.2874      Z       0.8465
       Tot       1.0912
    Quadrupole Moments (Debye-Ang)
        XX    -374.2306     XY      14.2665     YY    -424.7230
        XZ      -6.3520     YZ      -2.3803     ZZ    -440.5293

 Total job time:  94.98s(wall), 1035.43s(cpu)
        *  Thank you very much for using Q-Chem.  Have a nice day.  *
