 Q-Chem 4.4, Q-Chem, Inc., Pleasanton, CA (2016)
 Q-Chem 4.4.2 for Intel X86 Linux

User input:
--------------------------------------------------------------
$comment
SP
$end

$rem
MEM_STATIC 5000
MEM_TOTAL 20000
JOBTYPE SP
EXCHANGE B3LYP
BASIS 6-31g(d,p)
$end

$molecule
0 1
C          -3.465000    -20.114000      2.214000
C          -3.406000    -20.151000      0.821000
N          -2.685000    -19.212000      2.901000
C          -2.689000    -19.201000      0.109000
C          -2.056000    -18.242000      2.193000
C          -2.094000    -18.120000      0.799000
C          -1.520000    -16.973000      0.107000
C          -0.453000    -16.974000     -0.838000
C          -2.066000    -15.697000      0.306000
N           0.128000    -15.893000     -1.487000
N          -3.177000    -15.417000      0.973000
C          -1.538000    -14.561000     -0.373000
C          -0.364000    -14.663000     -1.208000
S          -3.492000    -13.825000      0.781000
N          -2.232000    -13.421000     -0.156000
C           0.249000    -13.452000     -1.835000
S          -0.130000    -11.806000     -1.402000
C           1.424000    -13.560000     -2.607000
C           1.323000    -11.282000     -2.326000
S           2.327000    -14.915000     -3.354000
C           1.920000    -12.312000     -2.900000
C           1.734000     -9.924000     -2.159000
C           3.434000    -13.676000     -4.011000
C           3.086000    -12.385000     -3.639000
N           2.668000     -9.408000     -2.903000
S           1.231000     -8.980000     -0.819000
C           3.091000     -8.216000     -2.377000
C           2.521000     -7.853000     -1.235000
C          -4.314000    -21.127000      2.959000
H          -3.784000    -21.016000      0.284000
H          -2.605000    -19.253000     -0.972000
H          -1.529000    -17.493000      2.782000
H           0.075000    -17.889000     -1.103000
H           4.284000    -14.014000     -4.588000
H           3.673000    -11.513000     -3.905000
H           3.896000     -7.753000     -2.933000
H           2.840000     -6.939000     -0.752000
H          -3.646000    -21.975000      3.154000
C          -5.607000    -21.662000      2.448000
H          -4.457000    -20.745000      3.978000
H          -5.544000    -21.847000      1.368000
H          -6.328000    -20.856000      2.632000
C          -6.012000    -23.092000      2.990000
H          -5.501000    -23.964000      2.563000
C          -7.534000    -23.296000      2.818000
H          -5.844000    -23.172000      4.072000
H          -7.863000    -23.343000      1.773000
H          -8.055000    -22.377000      3.113000
C          -8.242000    -24.457000      3.618000
H          -7.716000    -25.418000      3.574000
C          -9.631000    -24.735000      3.059000
H          -8.237000    -24.107000      4.658000
H         -10.207000    -23.816000      2.895000
H         -10.103000    -25.440000      3.754000
H          -9.652000    -25.155000      2.046000
C           2.867000    -19.215000     -0.444000
C           2.159000    -19.356000      0.762000
N           2.405000    -19.675000     -1.584000
C           0.981000    -20.107000      0.868000
C           1.178000    -20.327000     -1.581000
C           0.502000    -20.682000     -0.380000
C          -0.635000    -21.610000     -0.536000
C          -1.412000    -21.706000     -1.767000
C          -1.100000    -22.488000      0.496000
N          -2.418000    -22.502000     -2.020000
N          -0.535000    -22.588000      1.704000
C          -2.260000    -23.208000      0.296000
C          -2.873000    -23.207000     -1.018000
S          -1.419000    -23.639000      2.547000
N          -2.598000    -23.895000      1.386000
C          -4.037000    -24.034000     -1.367000
S          -5.344000    -24.561000     -0.322000
C          -4.316000    -24.585000     -2.622000
C          -6.336000    -25.150000     -1.602000
S          -3.431000    -24.434000     -4.187000
C          -5.568000    -25.219000     -2.683000
C          -7.732000    -25.568000     -1.578000
C          -4.826000    -25.276000     -4.973000
C          -5.792000    -25.628000     -4.022000
N          -8.284000    -25.799000     -0.398000
S          -8.893000    -25.572000     -2.853000
C          -9.611000    -26.166000     -0.431000
C         -10.174000    -26.040000     -1.682000
C           4.320000    -18.676000     -0.407000
H           2.482000    -18.723000      1.583000
H           0.409000    -20.222000      1.784000
H           0.930000    -20.920000     -2.460000
H          -1.101000    -21.088000     -2.608000
H          -4.772000    -25.458000     -6.039000
H          -6.658000    -26.188000     -4.356000
H         -10.149000    -26.321000      0.495000
H         -11.202000    -26.137000     -2.005000
H           4.786000    -18.952000      0.547000
C           4.397000    -17.196000     -0.620000
H           4.873000    -19.190000     -1.202000
H           3.543000    -16.788000     -0.064000
H           4.032000    -17.058000     -1.645000
C           5.735000    -16.596000     -0.310000
H           5.872000    -16.534000      0.777000
C           5.990000    -15.195000     -0.923000
H           6.477000    -17.328000     -0.652000
H           5.444000    -14.391000     -0.414000
H           5.567000    -15.155000     -1.934000
C           7.442000    -14.778000     -0.897000
H           8.030000    -15.603000     -1.319000
C           7.985000    -14.436000      0.531000
H           7.674000    -13.880000     -1.483000
H           7.547000    -13.532000      0.971000
H           9.063000    -14.264000      0.429000
H           7.741000    -15.284000      1.184000
$end

--------------------------------------------------------------

             Standard Nuclear Orientation (Angstroms)
    I     Atom           X                Y                Z
 ----------------------------------------------------------------
    1      C       2.3019202830    -1.1556107170     2.5152476547
    2      C       2.1956767249    -0.8937154791     1.1494430600
    3      N       1.1659100063    -1.1719764823     3.2918980349
    4      C       0.9570546253    -0.7945040189     0.5334029797
    5      C      -0.0363407553    -1.1548275910     2.6657159355
    6      C      -0.2127766011    -1.0643007893     1.2799889456
    7      C      -1.5233102011    -1.1984012192     0.6567171285
    8      C      -2.2230798397    -0.2230675968    -0.1117630456
    9      C      -2.2092989849    -2.4185778696     0.7372238390
   10      N      -3.4816850052    -0.3182418414    -0.6898442687
   11      N      -1.7274851188    -3.5565116770     1.2174030228
   12      C      -3.4828145022    -2.5842946011     0.1199579385
   13      C      -4.1569527311    -1.4793858128    -0.5208378309
   14      S      -2.8322136415    -4.7282354970     0.9395700142
   15      N      -3.9707011715    -3.8428981263     0.1987536509
   16      C      -5.5372301740    -1.6298247603    -1.0754740214
   17      S      -6.6020680303    -2.9710279246    -0.7472356756
   18      C      -6.2025794087    -0.5292844212    -1.6537424349
   19      C      -7.9502291193    -2.0064404458    -1.4483730899
   20      S      -5.7044061740     1.0962774862    -2.2183794097
   21      C      -7.5190247719    -0.8406175878    -1.8974887480
   22      C      -9.2712391041    -2.5143672955    -1.2536503756
   23      C      -7.4019598582     1.3239125612    -2.7270175540
   24      C      -8.2047341009     0.2273601518    -2.4454232914
   25      N     -10.2924885163    -1.9803491113    -1.8569929128
   26      S      -9.6335920568    -3.6608124175    -0.0313128936
   27      C     -11.4613851263    -2.4295911115    -1.3017169990
   28      C     -11.3322122083    -3.2551164062    -0.2708652419
   29      C       3.6716791875    -1.3262063621     3.1450513298
   30      H       3.0747365753    -0.6023496796     0.5821356034
   31      H       0.8706551235    -0.5471650368    -0.5200103077
   32      H      -0.9068177176    -1.2664208794     3.3102838497
   33      H      -1.8208764575     0.7767721672    -0.2692015595
   34      H      -7.6761001231     2.2775747724    -3.1571901963
   35      H      -9.2714289321     0.2084382278    -2.6391062740
   36      H     -12.3500624808    -1.9920431781    -1.7379902684
   37      H     -12.2195536061    -3.6148629396     0.2327751808
   38      H       3.9705358912    -0.3194110800     3.4619123889
   39      C       4.8298597085    -1.9587158738     2.4538606192
   40      H       3.5237449026    -1.8083712784     4.1199187263
   41      H       4.8626908327    -1.6488152062     1.4014929583
   42      H       4.6235740894    -3.0349345889     2.5041847739
   43      C       6.2564847493    -1.5014367021     2.9621181839
   44      H       6.6225119133    -0.5182128488     2.6409811888
   45      C       7.3093026871    -2.5593993405     2.5621513785
   46      H       6.2995934293    -1.4709471556     4.0587311645
   47      H       7.4661528503    -2.6465963956     1.4803613342
   48      H       6.9019178621    -3.5602496701     2.7502024944
   49      C       8.7182775375    -2.5378832182     3.2717371219
   50      H       9.1745965350    -1.5428442607     3.3334092022
   51      C       9.7236317861    -3.3928879279     2.5119241309
   52      H       8.5098702836    -2.8868547611     4.2910066048
   53      H       9.3155537457    -4.3735730760     2.2381323245
   54      H      10.6193028612    -3.4421070789     3.1429429898
   55      H       9.9996418497    -3.0185724718     1.5185881433
   56      C      -2.3630494776     3.6837042709     0.8459733868
   57      C      -1.7430831224     3.0407108860     1.9312301424
   58      N      -1.8029117645     3.7507813050    -0.3399399380
   59      C      -0.4349814619     2.5423636573     1.8725693786
   60      C      -0.5526871768     3.1689417403    -0.5103605974
   61      C       0.2196726382     2.6795482817     0.5802155617
   62      C       1.6265173100     2.3554957339     0.2735120960
   63      C       2.0745862507     1.9690739397    -1.0599864684
   64      C       2.6812855639     2.3682328128     1.2427564911
   65      N       3.2908819017     1.6833470748    -1.4455328964
   66      N       2.5144022635     2.7070851267     2.5256509035
   67      C       3.9316676096     1.9080697012     0.8838767751
   68      C       4.1987377034     1.6049952104    -0.5086696040
   69      S       3.9424895442     2.5178827234     3.2477832800
   70      N       4.7621515040     1.8992937323     1.9252856687
   71      C       5.5265439031     1.2261345239    -1.0126748382
   72      S       6.7993966274     0.3619988946    -0.1693963809
   73      C       6.0429576380     1.5081206732    -2.2816380631
   74      C       7.7668541216     0.1063362937    -1.5722675908
   75      S       5.2840917966     2.3348925668    -3.6943736614
   76      C       7.2889090887     0.9046559016    -2.5195797616
   77      C       8.9309529925    -0.7515745884    -1.7538680785
   78      C       6.7290939385     1.8429257970    -4.6653126437
   79      C       7.6527129671     1.1571083331    -3.8665365196
   80      N       9.5288389862    -1.2139467519    -0.6679540298
   81      S       9.5294851150    -1.4903838579    -3.1924375629
   82      C      10.6070097286    -2.0398043394    -0.8964580679
   83      C      10.7487288983    -2.3866152776    -2.2221593352
   84      C      -3.6535813297     4.5060761367     1.0936244582
   85      H      -2.3828193236     2.8048080051     2.7763019876
   86      H       0.0625365743     2.0316203843     2.6917653947
   87      H       0.0063204565     3.4483399188    -1.4021235277
   88      H       1.3335122222     1.9631128155    -1.8579211457
   89      H       6.7658641751     2.1419797392    -5.7053177828
   90      H       8.5908392540     0.8525915338    -4.3163148969
   91      H      11.1172075545    -2.5011991654    -0.0611389715
   92      H      11.4121100136    -3.0968297305    -2.6975990545
   93      H      -3.6390112241     4.9068183748     2.1147225782
   94      C      -4.9021762046     3.7140052439     0.8583957629
   95      H      -3.6263677215     5.3600757274     0.4066207328
   96      H      -4.6833562457     2.7183528916     1.2654709635
   97      H      -4.8709932230     3.4852573498    -0.2137963946
   98      C      -6.1537401845     4.3712130648     1.3564012693
   99      H      -6.2058450797     4.2918255422     2.4496371548
  100      C      -7.4733861734     3.8224661727     0.7555632608
  101      H      -6.0307253274     5.4418233554     1.1514306604
  102      H      -7.7581730625     2.8407428359     1.1539709890
  103      H      -7.3281959369     3.6043511558    -0.3093290504
  104      C      -8.6662311750     4.7183189530     0.9952246849
  105      H      -8.3831670650     5.7337087238     0.6897556637
  106      C      -9.1587913567     4.7457104217     2.4810346239
  107      H      -9.5666917467     4.4475702005     0.4299903337
  108      H      -9.5927962383     3.7993244148     2.8254954906
  109      H      -9.9427800246     5.5096782271     2.5425729113
  110      H      -8.2864848957     4.9678651369     3.1093480175
 ----------------------------------------------------------------

   10   -5663.5004248949      3.37E-06 Convergence criterion met
 Total energy in the final basis set = -5663.5004248949

                    Orbital Energies (a.u.)
 --------------------------------------------------------------

 Alpha MOs
 -- Occupied --
-88.994 -88.984 -88.931 -88.925 -88.925 -88.923 -88.912 -88.912
-14.387 -14.383 -14.383 -14.372 -14.356 -14.351 -14.341 -14.335
-14.334 -14.331 -10.274 -10.270 -10.263 -10.262 -10.259 -10.255
-10.252 -10.249 -10.244 -10.242 -10.242 -10.240 -10.239 -10.238
-10.236 -10.235 -10.235 -10.233 -10.233 -10.232 -10.232 -10.231
-10.230 -10.225 -10.225 -10.224 -10.224 -10.221 -10.220 -10.218
-10.209 -10.208 -10.207 -10.207 -10.202 -10.198 -10.192 -10.192
-10.181 -10.181 -10.180 -10.178 -10.177 -10.174 -10.174 -10.172
-10.171 -10.171 -10.167 -10.167  -8.049  -8.039  -7.992  -7.987
 -7.984  -7.983  -7.971  -7.970  -6.014  -6.009  -6.007  -6.005
 -5.999  -5.997  -5.956  -5.952  -5.951  -5.949  -5.949  -5.948
 -5.947  -5.945  -5.944  -5.943  -5.941  -5.939  -5.935  -5.935
 -5.932  -5.931  -5.927  -5.926  -1.044  -1.036  -0.984  -0.978
 -0.969  -0.945  -0.939  -0.930  -0.921  -0.916  -0.906  -0.903
 -0.843  -0.842  -0.840  -0.831  -0.813  -0.809  -0.806  -0.803
 -0.802  -0.800  -0.797  -0.795  -0.784  -0.779  -0.771  -0.766
 -0.755  -0.754  -0.742  -0.741  -0.724  -0.724  -0.712  -0.709
 -0.696  -0.695  -0.685  -0.672  -0.658  -0.651  -0.650  -0.637
 -0.636  -0.631  -0.629  -0.624  -0.614  -0.610  -0.604  -0.596
 -0.595  -0.593  -0.585  -0.584  -0.577  -0.575  -0.568  -0.564
 -0.556  -0.550  -0.546  -0.534  -0.528  -0.520  -0.515  -0.510
 -0.507  -0.505  -0.505  -0.493  -0.492  -0.488  -0.483  -0.477
 -0.471  -0.471  -0.467  -0.465  -0.461  -0.460  -0.457  -0.452
 -0.448  -0.445  -0.443  -0.441  -0.441  -0.436  -0.434  -0.431
 -0.429  -0.428  -0.425  -0.425  -0.423  -0.418  -0.415  -0.413
 -0.411  -0.410  -0.405  -0.404  -0.402  -0.400  -0.398  -0.397
 -0.395  -0.392  -0.391  -0.388  -0.387  -0.385  -0.383  -0.382
 -0.377  -0.375  -0.374  -0.373  -0.365  -0.364  -0.356  -0.355
 -0.352  -0.352  -0.350  -0.349  -0.345  -0.343  -0.340  -0.338
 -0.334  -0.333  -0.332  -0.330  -0.326  -0.324  -0.318  -0.314
 -0.314  -0.313  -0.309  -0.307  -0.305  -0.304  -0.302  -0.300
 -0.294  -0.291  -0.289  -0.289  -0.287  -0.283  -0.281  -0.279
 -0.275  -0.273  -0.269  -0.262  -0.259  -0.258  -0.253  -0.250
 -0.247  -0.245  -0.233  -0.232  -0.199  -0.195

          Ground-State Mulliken Net Atomic Charges

     Atom                 Charge (a.u.)
  ----------------------------------------
      1 C                     0.270795
      2 C                    -0.121039
      3 N                    -0.496474
      4 C                    -0.066656
      5 C                     0.087620
      6 C                     0.040731
      7 C                     0.001106
      8 C                     0.042316
      9 C                     0.254797
     10 N                    -0.530803
     11 N                    -0.552044
     12 C                     0.182979
     13 C                     0.327533
     14 S                     0.595904
     15 N                    -0.563048
     16 C                    -0.233409
     17 S                     0.319882
     18 C                    -0.122697
     19 C                    -0.243781
     20 S                     0.291002
     21 C                     0.208651
     22 C                     0.063430
     23 C                    -0.321325
     24 C                    -0.053207
     25 N                    -0.435185
     26 S                     0.264100
     27 C                     0.126025
     28 C                    -0.307109
     29 C                    -0.247605
     30 H                     0.089184
     31 H                     0.104595
     32 H                     0.102409
     33 H                     0.119853
     34 H                     0.132364
     35 H                     0.125246
     36 H                     0.110773
     37 H                     0.128779
     38 H                     0.117798
     39 C                    -0.181146
     40 H                     0.116982
     41 H                     0.107880
     42 H                     0.105374
     43 C                    -0.196865
     44 H                     0.124706
     45 C                    -0.185877
     46 H                     0.084868
     47 H                     0.101879
     48 H                     0.084166
     49 C                    -0.171023
     50 H                     0.096195
     51 C                    -0.331413
     52 H                     0.092760
     53 H                     0.097508
     54 H                     0.094574
     55 H                     0.114441
     56 C                     0.270431
     57 C                    -0.117497
     58 N                    -0.475974
     59 C                    -0.058841
     60 C                     0.030487
     61 C                     0.042009
     62 C                     0.042694
     63 C                     0.038210
     64 C                     0.223251
     65 N                    -0.482692
     66 N                    -0.554784
     67 C                     0.261533
     68 C                     0.272323
     69 S                     0.616630
     70 N                    -0.596660
     71 C                    -0.233895
     72 S                     0.355263
     73 C                    -0.119153
     74 C                    -0.199131
     75 S                     0.263748
     76 C                     0.157677
     77 C                     0.050056
     78 C                    -0.295662
     79 C                    -0.099789
     80 N                    -0.439116
     81 S                     0.266190
     82 C                     0.138291
     83 C                    -0.317286
     84 C                    -0.225129
     85 H                     0.095875
     86 H                     0.134917
     87 H                     0.111458
     88 H                     0.107960
     89 H                     0.138074
     90 H                     0.108500
     91 H                     0.121986
     92 H                     0.140147
     93 H                     0.096331
     94 C                    -0.182372
     95 H                     0.115965
     96 H                     0.094706
     97 H                     0.121569
     98 C                    -0.174136
     99 H                     0.095945
    100 C                    -0.172606
    101 H                     0.091856
    102 H                     0.094003
    103 H                     0.093206
    104 C                    -0.178762
    105 H                     0.089597
    106 C                    -0.319555
    107 H                     0.088009
    108 H                     0.102564
    109 H                     0.100542
    110 H                     0.102541
  ----------------------------------------
  Sum of atomic charges =     0.000000

                    Cartesian Multipole Moments
 -----------------------------------------------------------------
    Charge (ESU x 10^10)
                 0.0000
    Dipole Moment (Debye)
         X       0.5607      Y      -0.6278      Z      -0.2990
       Tot       0.8933
    Quadrupole Moments (Debye-Ang)
        XX    -376.8488     XY      -5.2157     YY    -438.8825
        XZ     -26.9485     YZ       2.2229     ZZ    -439.6788

 Total job time:  109.12s(wall), 1198.49s(cpu)
        *  Thank you very much for using Q-Chem.  Have a nice day.  *
