 Q-Chem 4.4, Q-Chem, Inc., Pleasanton, CA (2016)
 Q-Chem 4.4.2 for Intel X86 Linux

User input:
--------------------------------------------------------------
$comment
SP
$end

$rem
MEM_STATIC 5000
MEM_TOTAL 20000
JOBTYPE SP
EXCHANGE B3LYP
BASIS 6-31g(d,p)
$end

$molecule
0 1
C         -12.874000    -26.371000      4.645000
C         -12.397000    -27.261000      3.624000
N         -13.254000    -25.105000      4.348000
C         -12.630000    -26.900000      2.257000
C         -13.379000    -24.749000      3.019000
C         -13.006000    -25.555000      1.936000
C         -13.107000    -25.142000      0.462000
C         -13.505000    -26.078000     -0.544000
C         -12.868000    -23.843000     -0.014000
N         -13.660000    -25.792000     -1.843000
N         -12.414000    -22.902000      0.803000
C         -12.913000    -23.533000     -1.388000
C         -13.396000    -24.543000     -2.294000
S         -12.457000    -21.612000     -0.186000
N         -12.715000    -22.232000     -1.666000
C         -13.640000    -24.430000     -3.745000
S         -14.860000    -25.286000     -4.740000
C         -12.854000    -23.665000     -4.591000
C         -14.271000    -24.643000     -6.203000
S         -11.360000    -22.846000     -4.301000
C         -13.186000    -23.862000     -5.937000
C         -14.578000    -25.102000     -7.544000
C         -11.319000    -22.536000     -6.055000
C         -12.271000    -23.154000     -6.791000
N         -15.478000    -26.065000     -7.658000
S         -13.817000    -24.678000     -9.064000
C         -15.504000    -26.537000     -8.926000
C         -14.766000    -25.854000     -9.805000
C         -12.689000    -26.680000      6.100000
H         -11.947000    -28.211000      3.897000
H         -12.348000    -27.642000      1.516000
H         -13.672000    -23.721000      2.810000
H         -13.758000    -27.105000     -0.285000
H         -10.559000    -21.869000     -6.440000
H         -12.393000    -23.074000     -7.865000
H         -16.198000    -27.314000     -9.219000
H         -14.728000    -26.102000    -10.858000
H         -13.478000    -27.374000      6.416000
C         -12.777000    -25.503000      7.066000
H         -11.717000    -27.142000      6.314000
H         -13.765000    -25.027000      7.063000
H         -12.143000    -24.728000      6.618000
C         -12.338000    -25.951000      8.447000
H         -13.042000    -26.696000      8.839000
C         -12.581000    -24.707000      9.290000
H         -11.362000    -26.419000      8.625000
H         -13.640000    -24.500000      9.489000
H         -12.145000    -23.819000      8.816000
C         -12.148000    -24.986000     10.758000
H         -12.785000    -25.762000     11.201000
C         -12.414000    -23.886000     11.813000
H         -11.144000    -25.421000     10.834000
H         -12.152000    -24.315000     12.788000
H         -13.482000    -23.688000     11.659000
H         -11.797000    -23.006000     11.595000
C           2.867000    -19.215000     -0.444000
C           2.159000    -19.356000      0.762000
N           2.405000    -19.675000     -1.584000
C           0.981000    -20.107000      0.868000
C           1.178000    -20.327000     -1.581000
C           0.502000    -20.682000     -0.380000
C          -0.635000    -21.610000     -0.536000
C          -1.412000    -21.706000     -1.767000
C          -1.100000    -22.488000      0.496000
N          -2.418000    -22.502000     -2.020000
N          -0.535000    -22.588000      1.704000
C          -2.260000    -23.208000      0.296000
C          -2.873000    -23.207000     -1.018000
S          -1.419000    -23.639000      2.547000
N          -2.598000    -23.895000      1.386000
C          -4.037000    -24.034000     -1.367000
S          -5.344000    -24.561000     -0.322000
C          -4.316000    -24.585000     -2.622000
C          -6.336000    -25.150000     -1.602000
S          -3.431000    -24.434000     -4.187000
C          -5.568000    -25.219000     -2.683000
C          -7.732000    -25.568000     -1.578000
C          -4.826000    -25.276000     -4.973000
C          -5.792000    -25.628000     -4.022000
N          -8.284000    -25.799000     -0.398000
S          -8.893000    -25.572000     -2.853000
C          -9.611000    -26.166000     -0.431000
C         -10.174000    -26.040000     -1.682000
C           4.320000    -18.676000     -0.407000
H           2.482000    -18.723000      1.583000
H           0.409000    -20.222000      1.784000
H           0.930000    -20.920000     -2.460000
H          -1.101000    -21.088000     -2.608000
H          -4.772000    -25.458000     -6.039000
H          -6.658000    -26.188000     -4.356000
H         -10.149000    -26.321000      0.495000
H         -11.202000    -26.137000     -2.005000
H           4.786000    -18.952000      0.547000
C           4.397000    -17.196000     -0.620000
H           4.873000    -19.190000     -1.202000
H           3.543000    -16.788000     -0.064000
H           4.032000    -17.058000     -1.645000
C           5.735000    -16.596000     -0.310000
H           5.872000    -16.534000      0.777000
C           5.990000    -15.195000     -0.923000
H           6.477000    -17.328000     -0.652000
H           5.444000    -14.391000     -0.414000
H           5.567000    -15.155000     -1.934000
C           7.442000    -14.778000     -0.897000
H           8.030000    -15.603000     -1.319000
C           7.985000    -14.436000      0.531000
H           7.674000    -13.880000     -1.483000
H           7.547000    -13.532000      0.971000
H           9.063000    -14.264000      0.429000
H           7.741000    -15.284000      1.184000
$end

--------------------------------------------------------------

             Standard Nuclear Orientation (Angstroms)
    I     Atom           X                Y                Z
 ----------------------------------------------------------------
    1      C      -5.6768918678    -6.0107464117    -0.6437298993
    2      C      -5.6175853896    -5.0268766727    -1.6880253932
    3      N      -5.6182639058    -5.6506729134     0.6609826506
    4      C      -5.8172803918    -3.6542160137    -1.3285485218
    5      C      -5.7157189942    -4.3099613663     0.9797255770
    6      C      -5.7295013188    -3.2646274426     0.0476627918
    7      C      -5.7961177065    -1.7742270180     0.4050349106
    8      C      -6.5698771123    -0.8589818492    -0.3760916239
    9      C      -5.1611074742    -1.1978595813     1.5166376196
   10      N      -6.7172251418     0.4453493819    -0.1110810624
   11      N      -4.3479625416    -1.9212841087     2.2746206483
   12      C      -5.2031294544     0.1891614660     1.7624175368
   13      C      -6.0741520048     0.9948560671     0.9460837040
   14      S      -4.0197442367    -0.8508715049     3.4538405607
   15      N      -4.5903580601     0.5660875245     2.8988712159
   16      C      -6.3763094039     2.4336568618     1.0735951908
   17      S      -7.8903697017     3.2959040386     0.6548921686
   18      C      -5.4429116110     3.3737828502     1.4781550582
   19      C      -7.2313832309     4.8308751402     0.9870661421
   20      S      -3.7402576374     3.2270290170     1.7357007020
   21      C      -5.9262394338     4.6818082118     1.3508252931
   22      C      -7.7814089342     6.1175227063     0.6059877167
   23      C      -3.7314339675     4.9975002446     1.9348257259
   24      C      -4.8924984477     5.6334733509     1.6566324818
   25      N      -8.9645401843     6.1134909549     0.0139157701
   26      S      -7.0416169131     7.7042892899     0.6706141410
   27      C      -9.2505638254     7.3427792966    -0.4742692868
   28      C      -8.3929423256     8.3074161210    -0.1311437122
   29      C      -5.4972820045    -7.4702874035    -0.9339218880
   30      H      -5.5034991680    -5.3374824165    -2.7224515172
   31      H      -5.8674440973    -2.9504145945    -2.1539673034
   32      H      -5.6510534657    -4.0487176669     2.0351326544
   33      H      -7.1409547667    -1.2015020641    -1.2377001285
   34      H      -2.8202992120     5.4702923506     2.2769003988
   35      H      -5.0625964962     6.7015816026     1.7271407537
   36      H     -10.1907430889     7.5416002274    -0.9720113787
   37      H      -8.5250226002     9.3415153685    -0.4226064840
   38      H      -6.4502345951    -7.8778693363    -1.2941597652
   39      C      -5.0979546143    -8.3573583582     0.2407575392
   40      H      -4.7310788525    -7.6587384195    -1.6964459495
   41      H      -5.8578594079    -8.3790352402     1.0312028677
   42      H      -4.2722749767    -7.8217426906     0.7251685142
   43      C      -4.7345477215    -9.7379863832    -0.2714803808
   44      H      -5.6196964663   -10.2198269712    -0.7058147534
   45      C      -4.4666267524   -10.5069410377     1.0146615607
   46      H      -3.9694782690    -9.8907587466    -1.0425921352
   47      H      -5.3700929648   -10.7522315355     1.5869485296
   48      H      -3.7891334574    -9.9491731716     1.6728513836
   49      C      -4.0437019573   -11.9630592372     0.6665115833
   50      H      -4.8729219618   -12.4939363036     0.1819935500
   51      C      -3.8305089729   -12.9543019578     1.8351721928
   52      H      -3.2489920344   -12.0103742074    -0.0879514258
   53      H      -3.6576926860   -13.9394842588     1.3847719654
   54      H      -4.7729844647   -12.8491357837     2.3867372599
   55      H      -2.9665646097   -12.6415989741     2.4338624142
   56      C      11.1197321804     0.4546555299     0.3347057485
   57      C      10.5027809302    -0.7970314818     0.5027289007
   58      N      10.4400460060     1.5320832126     0.0156128267
   59      C       9.1499808108    -1.0218081242     0.2157998189
   60      C       9.0675835016     1.4138059772    -0.1660439088
   61      C       8.4062769802     0.1543744132    -0.2097225086
   62      C       7.0103052133     0.1808659839    -0.6881052243
   63      C       6.1546170761     1.3555196513    -0.5604628587
   64      C       6.3525878448    -0.9336667416    -1.3023996708
   65      N       4.9191912588     1.4951811444    -0.9652822226
   66      N       6.9405319126    -2.1110078533    -1.5404725167
   67      C       5.0035017667    -0.8505150412    -1.5799830790
   68      C       4.3282275907     0.4228875288    -1.4224499652
   69      S       5.8164895417    -3.0732841502    -2.1786410497
   70      N       4.5350301821    -2.0024717307    -2.0573122737
   71      C       2.9268523755     0.6469261161    -1.8053079250
   72      S       1.6038609951    -0.5052970710    -1.7964459560
   73      C       2.3779421531     1.8432698006    -2.2785165011
   74      C       0.3730445761     0.6721663412    -2.0573211286
   75      S       3.1359354919     3.4634292979    -2.5146950391
   76      C       0.9833306383     1.7885182964    -2.4373937982
   77      C      -1.0750411350     0.5391445959    -1.9600124002
   78      C       1.4793119539     4.1083545793    -2.8500379009
   79      C       0.5283519939     3.0813740482    -2.8005692905
   80      N      -1.5791936145    -0.6837625883    -1.9318468857
   81      S      -2.2615262013     1.7417025530    -1.6140795348
   82      C      -2.9495742535    -0.7525526229    -1.8133908377
   83      C      -3.5300179484     0.4695028141    -1.5535608432
   84      C      12.6676582541     0.5384541674     0.3334177869
   85      H      11.0873662135    -1.5529830706     1.0183413928
   86      H       8.6466231863    -1.9750260733     0.3479801625
   87      H       8.5624386738     2.2345828263    -0.6729443595
   88      H       6.5933979357     2.2532124951    -0.1273982960
   89      H       1.3839734256     5.1608208396    -3.0858796613
   90      H      -0.5009536125     3.3258717229    -3.0369225340
   91      H      -3.4341665458    -1.7164902992    -1.7300873777
   92      H      -4.5501048494     0.7252152628    -1.2994823950
   93      H      13.0824628521    -0.4036069734    -0.0459315937
   94      C      13.2341330829     0.8558391770     1.6825178662
   95      H      12.9454732365     1.3272231982    -0.3755901478
   96      H      12.6195955824     0.2805067572     2.3869696156
   97      H      12.8606100542     1.8650540068     1.8943195996
   98      C      14.7168234266     0.6652387434     1.7904290316
   99      H      14.9509951022    -0.4052808068     1.8481656659
  100      C      15.3913516763     1.3859293192     2.9859254701
  101      H      15.1313967754     0.9988912947     0.8311809337
  102      H      15.1979527928     0.9021708499     3.9514241056
  103      H      14.9308343614     2.3711754502     3.1268646912
  104      C      16.8953594408     1.4723180707     2.8703113372
  105      H      17.1275615649     1.8704205616     1.8742944798
  106      C      17.6324794625     0.1046850404     3.0632646165
  107      H      17.3767930656     2.1305336004     3.6042036873
  108      H      17.5692460698    -0.2972996109     4.0816308954
  109      H      18.6921365991     0.2802705923     2.8433362941
  110      H      17.1623043134    -0.6175510798     2.3832945319
 ----------------------------------------------------------------

    9   -5663.4835174046      9.34E-06 Convergence criterion met
 Total energy in the final basis set = -5663.4835174046

                    Orbital Energies (a.u.)
 --------------------------------------------------------------

 Alpha MOs
 -- Occupied --
-88.991 -88.990 -88.931 -88.926 -88.923 -88.919 -88.915 -88.908
-14.399 -14.392 -14.384 -14.379 -14.354 -14.351 -14.339 -14.336
-14.333 -14.332 -10.270 -10.270 -10.267 -10.266 -10.265 -10.261
-10.255 -10.252 -10.244 -10.242 -10.238 -10.238 -10.237 -10.237
-10.235 -10.234 -10.231 -10.231 -10.231 -10.230 -10.229 -10.229
-10.229 -10.228 -10.228 -10.227 -10.227 -10.223 -10.222 -10.221
-10.220 -10.217 -10.210 -10.207 -10.205 -10.202 -10.201 -10.200
-10.183 -10.183 -10.181 -10.177 -10.176 -10.176 -10.175 -10.173
-10.173 -10.171 -10.171 -10.170  -8.047  -8.046  -7.993  -7.985
 -7.984  -7.979  -7.975  -7.966  -6.012  -6.011  -6.007  -6.005
 -6.005  -6.003  -5.957  -5.953  -5.950  -5.949  -5.948  -5.946
 -5.944  -5.943  -5.942  -5.941  -5.940  -5.939  -5.936  -5.935
 -5.931  -5.931  -5.927  -5.922  -1.058  -1.040  -0.980  -0.979
 -0.963  -0.961  -0.937  -0.933  -0.928  -0.920  -0.916  -0.902
 -0.854  -0.837  -0.836  -0.834  -0.818  -0.813  -0.813  -0.810
 -0.806  -0.798  -0.796  -0.789  -0.784  -0.782  -0.770  -0.769
 -0.753  -0.751  -0.747  -0.737  -0.728  -0.719  -0.716  -0.710
 -0.700  -0.694  -0.680  -0.678  -0.657  -0.657  -0.649  -0.648
 -0.640  -0.634  -0.628  -0.626  -0.611  -0.609  -0.599  -0.598
 -0.593  -0.592  -0.585  -0.583  -0.580  -0.575  -0.567  -0.566
 -0.553  -0.545  -0.544  -0.541  -0.529  -0.523  -0.523  -0.514
 -0.511  -0.508  -0.505  -0.500  -0.489  -0.487  -0.483  -0.480
 -0.478  -0.477  -0.473  -0.468  -0.467  -0.461  -0.455  -0.453
 -0.452  -0.452  -0.443  -0.442  -0.438  -0.437  -0.436  -0.431
 -0.430  -0.428  -0.426  -0.425  -0.423  -0.421  -0.417  -0.416
 -0.412  -0.412  -0.411  -0.407  -0.405  -0.401  -0.400  -0.396
 -0.395  -0.394  -0.394  -0.392  -0.387  -0.385  -0.382  -0.381
 -0.377  -0.376  -0.376  -0.369  -0.367  -0.367  -0.366  -0.357
 -0.356  -0.353  -0.348  -0.347  -0.346  -0.345  -0.342  -0.341
 -0.340  -0.340  -0.337  -0.334  -0.327  -0.326  -0.321  -0.321
 -0.317  -0.316  -0.313  -0.311  -0.309  -0.305  -0.303  -0.301
 -0.299  -0.297  -0.290  -0.288  -0.285  -0.284  -0.282  -0.281
 -0.278  -0.268  -0.268  -0.265  -0.257  -0.255  -0.253  -0.251
 -0.247  -0.241  -0.239  -0.229  -0.200  -0.193

          Ground-State Mulliken Net Atomic Charges

     Atom                 Charge (a.u.)
  ----------------------------------------
      1 C                     0.277729
      2 C                    -0.112869
      3 N                    -0.480645
      4 C                    -0.106567
      5 C                     0.077291
      6 C                     0.058124
      7 C                     0.044348
      8 C                     0.037952
      9 C                     0.182085
     10 N                    -0.485720
     11 N                    -0.515445
     12 C                     0.223249
     13 C                     0.219645
     14 S                     0.608449
     15 N                    -0.514143
     16 C                    -0.216850
     17 S                     0.348906
     18 C                    -0.105158
     19 C                    -0.195878
     20 S                     0.282510
     21 C                     0.098323
     22 C                     0.054495
     23 C                    -0.314380
     24 C                    -0.050525
     25 N                    -0.429752
     26 S                     0.283480
     27 C                     0.117614
     28 C                    -0.305194
     29 C                    -0.255082
     30 H                     0.098424
     31 H                     0.103036
     32 H                     0.115480
     33 H                     0.111552
     34 H                     0.128151
     35 H                     0.118097
     36 H                     0.111622
     37 H                     0.133148
     38 H                     0.114302
     39 C                    -0.169321
     40 H                     0.111282
     41 H                     0.112813
     42 H                     0.110541
     43 C                    -0.174376
     44 H                     0.093364
     45 C                    -0.166076
     46 H                     0.096134
     47 H                     0.093776
     48 H                     0.096555
     49 C                    -0.201608
     50 H                     0.089220
     51 C                    -0.311937
     52 H                     0.082180
     53 H                     0.101652
     54 H                     0.099807
     55 H                     0.101487
     56 C                     0.269866
     57 C                    -0.123352
     58 N                    -0.482386
     59 C                    -0.043889
     60 C                     0.046276
     61 C                     0.035108
     62 C                     0.026645
     63 C                     0.051594
     64 C                     0.213721
     65 N                    -0.488057
     66 N                    -0.559569
     67 C                     0.260101
     68 C                     0.285432
     69 S                     0.601409
     70 N                    -0.582699
     71 C                    -0.224778
     72 S                     0.334534
     73 C                    -0.120346
     74 C                    -0.185475
     75 S                     0.258644
     76 C                     0.155749
     77 C                     0.045396
     78 C                    -0.298264
     79 C                    -0.098769
     80 N                    -0.434932
     81 S                     0.271527
     82 C                     0.122359
     83 C                    -0.330119
     84 C                    -0.223850
     85 H                     0.090768
     86 H                     0.119328
     87 H                     0.111334
     88 H                     0.106286
     89 H                     0.135216
     90 H                     0.108996
     91 H                     0.119217
     92 H                     0.147266
     93 H                     0.097202
     94 C                    -0.178342
     95 H                     0.117739
     96 H                     0.088814
     97 H                     0.109700
     98 C                    -0.173047
     99 H                     0.097344
    100 C                    -0.173325
    101 H                     0.095324
    102 H                     0.090597
    103 H                     0.092075
    104 C                    -0.178373
    105 H                     0.091830
    106 C                    -0.320025
    107 H                     0.089671
    108 H                     0.102486
    109 H                     0.102167
    110 H                     0.102581
  ----------------------------------------
  Sum of atomic charges =     0.000000

                    Cartesian Multipole Moments
 -----------------------------------------------------------------
    Charge (ESU x 10^10)
                 0.0000
    Dipole Moment (Debye)
         X      -0.3263      Y       1.0342      Z      -0.1697
       Tot       1.0976
    Quadrupole Moments (Debye-Ang)
        XX    -439.5147     XY     -27.9789     YY    -402.4211
        XZ      16.8167     YZ       7.3406     ZZ    -443.5913

 Total job time:  87.71s(wall), 945.25s(cpu)
        *  Thank you very much for using Q-Chem.  Have a nice day.  *
