 Q-Chem 4.4, Q-Chem, Inc., Pleasanton, CA (2016)
 Q-Chem 4.4.2 for Intel X86 Linux

User input:
--------------------------------------------------------------
$comment
SP
$end

$rem
MEM_STATIC 5000
MEM_TOTAL 20000
JOBTYPE SP
EXCHANGE B3LYP
BASIS 6-31g(d,p)
$end

$molecule
0 1
C          31.077000      6.516000      1.357000
C          31.047000      5.544000      2.394000
N          30.425000      6.466000      0.192000
C          30.296000      4.382000      2.113000
C          29.627000      5.386000      0.001000
C          29.454000      4.362000      0.967000
C          28.568000      3.210000      0.697000
C          28.414000      2.622000     -0.586000
C          27.720000      2.723000      1.649000
N          27.557000      1.627000     -0.859000
N          27.614000      3.169000      2.916000
C          26.950000      1.610000      1.394000
C          26.854000      1.023000      0.112000
S          26.465000      2.237000      3.680000
N          26.163000      1.251000      2.420000
C          26.153000     -0.169000     -0.382000
S          25.943000     -0.446000     -2.135000
C          25.585000     -1.238000      0.308000
C          25.211000     -2.041000     -1.926000
S          25.522000     -1.560000      1.990000
C          25.121000     -2.266000     -0.552000
C          24.564000     -2.666000     -3.042000
C          24.783000     -3.106000      1.655000
C          24.649000     -3.363000      0.272000
N          24.144000     -3.914000     -2.938000
S          24.140000     -1.865000     -4.512000
C          23.580000     -4.360000     -4.071000
C          23.644000     -3.421000     -5.138000
C          31.723000      7.879000      1.614000
H          31.523000      5.599000      3.369000
H          30.309000      3.629000      2.894000
H          29.147000      5.277000     -0.970000
H          29.065000      2.915000     -1.408000
H          24.499000     -3.800000      2.434000
H          24.189000     -4.237000     -0.175000
H          23.145000     -5.350000     -4.105000
H          23.288000     -3.543000     -6.152000
H          32.132000      8.297000      0.686000
C          32.799000      7.891000      2.732000
H          30.906000      8.560000      1.884000
H          33.518000      7.076000      2.585000
H          32.338000      7.417000      3.606000
C          33.573000      9.232000      3.060000
H          34.171000      9.071000      3.965000
C          32.642000     10.442000      3.144000
H          34.408000      9.378000      2.363000
H          31.935000     10.107000      3.913000
H          32.209000     10.532000      2.140000
C          33.419000     11.698000      3.641000
H          32.711000     12.423000      4.060000
C          34.243000     12.386000      2.525000
H          34.042000     11.424000      4.501000
H          33.464000     12.472000      1.757000
H          35.041000     11.776000      2.084000
H          34.696000     13.311000      2.904000
C          20.427000     -7.850000     12.766000
C          20.678000     -6.695000     11.960000
N          21.167000     -8.982000     12.719000
C          21.859000     -6.651000     11.176000
C          22.244000     -8.915000     11.863000
C          22.605000     -7.832000     11.101000
C          23.782000     -7.771000     10.176000
C          23.798000     -6.955000      9.043000
C          24.889000     -8.610000     10.338000
N          24.861000     -6.824000      8.216000
N          25.048000     -9.489000     11.277000
C          25.998000     -8.613000      9.449000
C          25.942000     -7.723000      8.323000
S          26.480000    -10.243000     11.026000
N          26.867000     -9.558000      9.633000
C          26.896000     -7.522000      7.242000
S          28.495000     -8.178000      7.247000
C          26.767000     -6.655000      6.129000
C          29.073000     -7.186000      5.852000
S          25.316000     -5.931000      5.474000
C          27.972000     -6.425000      5.454000
C          30.380000     -7.191000      5.258000
C          26.424000     -5.132000      4.305000
C          27.773000     -5.470000      4.397000
N          31.177000     -8.132000      5.761000
S          31.112000     -6.160000      4.102000
C          32.494000     -7.807000      5.463000
C          32.664000     -6.682000      4.667000
C          19.196000     -7.819000     13.645000
H          20.068000     -5.797000     11.958000
H          22.210000     -5.734000     10.712000
H          22.807000     -9.836000     11.718000
H          23.056000     -6.196000      8.799000
H          25.935000     -4.603000      3.498000
H          28.584000     -5.117000      3.771000
H          33.295000     -8.435000      5.830000
H          33.579000     -6.320000      4.218000
H          18.297000     -7.514000     13.096000
C          19.362000     -6.680000     14.732000
H          19.056000     -8.750000     14.207000
H          19.481000     -5.724000     14.207000
H          20.377000     -6.675000     15.149000
C          18.337000     -6.818000     15.914000
H          17.338000     -7.058000     15.529000
C          18.283000     -5.598000     16.825000
H          18.611000     -7.610000     16.622000
H          17.603000     -5.786000     17.664000
H          18.003000     -4.696000     16.267000
C          19.614000     -5.239000     17.549000
H          20.098000     -6.105000     18.016000
C          19.343000     -4.260000     18.744000
H          20.321000     -4.684000     16.920000
H          18.639000     -4.745000     19.431000
H          18.935000     -3.276000     18.478000
H          20.275000     -3.954000     19.235000
$end

--------------------------------------------------------------

             Standard Nuclear Orientation (Angstroms)
    I     Atom           X                Y                Z
 ----------------------------------------------------------------
    1      C      10.1358161889     3.5630972633     0.5050843281
    2      C       8.8089085385     3.7203859230     0.9905010202
    3      N      10.5936078438     2.5780824674    -0.2727341935
    4      C       7.9152677985     2.6792167421     0.6579668649
    5      C       9.6815236846     1.6528563180    -0.6622775915
    6      C       8.3107195777     1.7075495622    -0.3023251646
    7      C       7.3666576265     0.6666878873    -0.7609688236
    8      C       7.7181203093    -0.7005977987    -0.9111448385
    9      C       6.1188109955     0.9839978924    -1.2134841782
   10      N       6.8936387988    -1.6395992849    -1.3984942488
   11      N       5.5839074238     2.2199246992    -1.2559588450
   12      C       5.2350539123    -0.0079703349    -1.5763429027
   13      C       5.6081736094    -1.3676402380    -1.6732368983
   14      S       4.0395388800     2.0761445790    -1.8615776013
   15      N       4.0504046034     0.4543277004    -2.0050765511
   16      C       4.8470668627    -2.5841946826    -1.9847056825
   17      S       5.6858070602    -4.1135820565    -2.3737135765
   18      C       3.4725396533    -2.8099674701    -2.0191527276
   19      C       4.1954346996    -5.0599602773    -2.4554967658
   20      S       2.1690782362    -1.7490892922    -1.6840365898
   21      C       3.1421964047    -4.1729980517    -2.2305787708
   22      C       4.2327286790    -6.3773035531    -3.0193281704
   23      C       1.0525379390    -3.0769980216    -1.8801441395
   24      C       1.6998611468    -4.3049405536    -2.1443860792
   25      N       3.1610423700    -7.1465463563    -2.9524404680
   26      S       5.5471676067    -7.0214527877    -3.9356245575
   27      C       3.3618403436    -8.3526979761    -3.5052328737
   28      C       4.6978677162    -8.5503164006    -3.9527636747
   29      C      11.1423169854     4.7041660963     0.6664908493
   30      H       8.4087811622     4.5457549854     1.5726436088
   31      H       6.9149231968     2.7880065356     1.0636939392
   32      H      10.0408752811     0.7953423146    -1.2285444579
   33      H       8.6785173646    -1.0653206473    -0.5506608030
   34      H      -0.0170204906    -2.9635804895    -1.7691746436
   35      H       1.2153867532    -5.2554232447    -2.3371351798
   36      H       2.5472429995    -9.0621230591    -3.5654675706
   37      H       5.1216815005    -9.4355005433    -4.4073480011
   38      H      12.1645110203     4.3136095933     0.7424775112
   39      C      10.8462499950     5.6745353080     1.8406168776
   40      H      11.1313011696     5.2594805257    -0.2798994170
   41      H      10.6519593631     5.1157188155     2.7640724953
   42      H       9.8006154958     5.9825573290     1.7272858196
   43      C      11.8406803392     6.8689746745     2.1395548146
   44      H      11.3830963538     7.5153683591     2.8980679001
   45      C      12.2646403932     7.6115029304     0.8719481477
   46      H      12.6907134157     6.5241150599     2.7419380938
   47      H      11.2882132282     7.9030294013     0.4657003068
   48      H      12.7977913523     6.8620662389     0.2738681361
   49      C      13.0957385750     8.8796570138     1.2315799496
   50      H      13.0613150143     9.5878942303     0.3951201098
   51      C      14.5749132359     8.5648158710     1.5642860921
   52      H      12.5989177681     9.4219091486     2.0451748784
   53      H      14.8276082755     7.9546035626     0.6880172089
   54      H      14.7350308741     7.9235478073     2.4397988633
   55      H      15.1343856079     9.4958272728     1.7213957182
   56      C     -10.8072094186     1.8249028827    -2.3824917661
   57      C      -9.4190695837     1.9841311133    -2.6896988127
   58      N     -11.2725555982     1.1401449137    -1.3120748113
   59      C      -8.4547138048     1.5447687655    -1.7471853332
   60      C     -10.2858771292     0.6498690559    -0.4854859280
   61      C      -8.9335252366     0.8079011160    -0.6587609307
   62      C      -7.8701625418     0.2721819842     0.2506013683
   63      C      -6.5941308938    -0.0597507809    -0.2091429877
   64      C      -8.1311246243    -0.0263072683     1.5916520600
   65      N      -5.5873861516    -0.4883639488     0.5869818620
   66      N      -9.2625046013     0.1367989292     2.2024046417
   67      C      -7.1593689695    -0.5832098124     2.4667300586
   68      C      -5.8641953769    -0.8699337843     1.9158882220
   69      S      -9.0840620652    -0.3851953524     3.7444231990
   70      N      -7.5950327635    -0.9587342456     3.6291501456
   71      C      -4.6902124830    -1.4576948323     2.5446800120
   72      S      -4.5442887744    -1.7047059238     4.2490431752
   73      C      -3.4460906932    -1.7571874227     1.9367621225
   74      C      -2.7738400039    -2.0617469131     4.2020763452
   75      S      -3.0806543845    -1.9432133268     0.2366289903
   76      C      -2.4149083216    -1.9916767179     2.8544917597
   77      C      -1.9157301602    -2.3751339842     5.3095717356
   78      C      -1.3866869800    -2.1963689052     0.7834495145
   79      C      -1.1722708710    -2.1995991490     2.1605930429
   80      N      -2.5766746615    -2.5140208395     6.4574226874
   81      S      -0.2120888432    -2.5094348602     5.4307762649
   82      C      -1.6768530359    -2.3896414215     7.5080267053
   83      C      -0.3456188474    -2.2508171179     7.1383182414
   84      C     -11.7990451036     2.3791720747    -3.3814965892
   85      H      -9.0336980131     2.4951045949    -3.5665698714
   86      H      -7.4070370435     1.8207728834    -1.8218922986
   87      H     -10.6117085493     0.0076447256     0.3315922784
   88      H      -6.1999437911     0.1642177249    -1.1994134742
   89      H      -0.6997689332    -2.5200055950     0.0129860891
   90      H      -0.2350308364    -2.3600166532     2.6802596108
   91      H      -2.0374479888    -2.4297674175     8.5273574584
   92      H       0.5248643423    -2.2601475524     7.7802231872
   93      H     -11.5800748164     2.0630106917    -4.4084926911
   94      C     -11.6473086807     3.9537491511    -3.4457545723
   95      H     -12.8394536612     2.1910433094    -3.0910441820
   96      H     -10.6210379360     4.1837581716    -3.7581424866
   97      H     -11.5287708285     4.3817728184    -2.4423187159
   98      C     -12.8685481959     4.6509927686    -4.1451960526
   99      H     -13.1612938691     4.0977185866    -5.0463140529
  100      C     -12.6326276915     6.1207253877    -4.4699491031
  101      H     -13.7521744732     4.7073229101    -3.4974032483
  102      H     -13.5430658558     6.5627914500    -4.8910725360
  103      H     -11.7709485001     6.2482242066    -5.1367481900
  104      C     -12.3489813177     7.0430824889    -3.2478934119
  105      H     -13.0527648777     6.8916353374    -2.4208181668
  106      C     -12.5370805922     8.5497361272    -3.6409843393
  107      H     -11.3110718249     6.9992316869    -2.8952803208
  108      H     -13.5627952154     8.6829117921    -4.0056537157
  109      H     -11.8514139111     8.9376001113    -4.4057710626
  110      H     -12.2912123378     9.2186415286    -2.8070446740
 ----------------------------------------------------------------

    9   -5663.5008996752      6.68E-06 Convergence criterion met
 Total energy in the final basis set = -5663.5008996752

                    Orbital Energies (a.u.)
 --------------------------------------------------------------

 Alpha MOs
 -- Occupied --
-88.992 -88.985 -88.931 -88.931 -88.923 -88.922 -88.917 -88.916
-14.385 -14.384 -14.378 -14.373 -14.349 -14.347 -14.341 -14.340
-14.334 -14.333 -10.269 -10.269 -10.266 -10.265 -10.256 -10.255
-10.250 -10.249 -10.248 -10.246 -10.245 -10.242 -10.242 -10.237
-10.236 -10.235 -10.234 -10.234 -10.234 -10.232 -10.232 -10.231
-10.231 -10.230 -10.230 -10.220 -10.220 -10.219 -10.217 -10.217
-10.214 -10.212 -10.211 -10.209 -10.208 -10.206 -10.203 -10.202
-10.187 -10.185 -10.184 -10.183 -10.183 -10.181 -10.181 -10.180
-10.180 -10.178 -10.175 -10.172  -8.047  -8.041  -7.993  -7.992
 -7.982  -7.980  -7.977  -7.975  -6.013  -6.007  -6.007  -6.005
 -6.001  -5.999  -5.957  -5.956  -5.954  -5.953  -5.950  -5.949
 -5.947  -5.945  -5.943  -5.942  -5.941  -5.939  -5.939  -5.938
 -5.937  -5.936  -5.934  -5.931  -1.057  -1.038  -0.977  -0.970
 -0.964  -0.944  -0.941  -0.932  -0.922  -0.914  -0.907  -0.901
 -0.850  -0.842  -0.836  -0.832  -0.811  -0.811  -0.809  -0.808
 -0.804  -0.803  -0.798  -0.797  -0.785  -0.782  -0.768  -0.765
 -0.750  -0.748  -0.741  -0.739  -0.725  -0.719  -0.712  -0.712
 -0.697  -0.694  -0.678  -0.678  -0.660  -0.652  -0.648  -0.647
 -0.639  -0.635  -0.626  -0.620  -0.614  -0.609  -0.602  -0.602
 -0.597  -0.593  -0.590  -0.586  -0.584  -0.577  -0.562  -0.562
 -0.558  -0.547  -0.545  -0.543  -0.526  -0.522  -0.519  -0.514
 -0.509  -0.509  -0.503  -0.501  -0.488  -0.487  -0.482  -0.480
 -0.475  -0.473  -0.473  -0.472  -0.467  -0.466  -0.454  -0.450
 -0.445  -0.443  -0.442  -0.439  -0.438  -0.437  -0.435  -0.434
 -0.429  -0.428  -0.425  -0.425  -0.422  -0.417  -0.415  -0.413
 -0.412  -0.408  -0.407  -0.404  -0.402  -0.402  -0.401  -0.399
 -0.397  -0.394  -0.392  -0.391  -0.389  -0.388  -0.381  -0.380
 -0.378  -0.376  -0.376  -0.370  -0.369  -0.367  -0.363  -0.362
 -0.355  -0.353  -0.351  -0.348  -0.345  -0.345  -0.342  -0.339
 -0.337  -0.336  -0.334  -0.331  -0.331  -0.329  -0.324  -0.323
 -0.314  -0.313  -0.308  -0.307  -0.306  -0.302  -0.301  -0.301
 -0.297  -0.295  -0.293  -0.293  -0.285  -0.284  -0.283  -0.280
 -0.276  -0.275  -0.267  -0.265  -0.258  -0.255  -0.253  -0.252
 -0.248  -0.242  -0.237  -0.233  -0.194  -0.192

          Ground-State Mulliken Net Atomic Charges

     Atom                 Charge (a.u.)
  ----------------------------------------
      1 C                     0.256043
      2 C                    -0.100699
      3 N                    -0.476732
      4 C                    -0.071291
      5 C                     0.073757
      6 C                     0.037617
      7 C                    -0.004290
      8 C                     0.060820
      9 C                     0.283069
     10 N                    -0.517830
     11 N                    -0.579877
     12 C                     0.185959
     13 C                     0.329540
     14 S                     0.603721
     15 N                    -0.553875
     16 C                    -0.240834
     17 S                     0.310648
     18 C                    -0.107127
     19 C                    -0.207362
     20 S                     0.309089
     21 C                     0.142935
     22 C                     0.046319
     23 C                    -0.321350
     24 C                    -0.074664
     25 N                    -0.421087
     26 S                     0.288722
     27 C                     0.123412
     28 C                    -0.318274
     29 C                    -0.218571
     30 H                     0.102249
     31 H                     0.107881
     32 H                     0.103043
     33 H                     0.117321
     34 H                     0.128455
     35 H                     0.124672
     36 H                     0.117506
     37 H                     0.133889
     38 H                     0.115646
     39 C                    -0.203369
     40 H                     0.124704
     41 H                     0.090807
     42 H                     0.089313
     43 C                    -0.185219
     44 H                     0.089101
     45 C                    -0.172023
     46 H                     0.093398
     47 H                     0.095399
     48 H                     0.101590
     49 C                    -0.184495
     50 H                     0.091635
     51 C                    -0.312284
     52 H                     0.089945
     53 H                     0.106497
     54 H                     0.105418
     55 H                     0.103485
     56 C                     0.277556
     57 C                    -0.122044
     58 N                    -0.492984
     59 C                    -0.093006
     60 C                     0.073356
     61 C                     0.085364
     62 C                     0.063565
     63 C                     0.038069
     64 C                     0.239989
     65 N                    -0.515474
     66 N                    -0.574418
     67 C                     0.206593
     68 C                     0.281926
     69 S                     0.588448
     70 N                    -0.537370
     71 C                    -0.236692
     72 S                     0.348270
     73 C                    -0.105810
     74 C                    -0.214749
     75 S                     0.290703
     76 C                     0.138922
     77 C                     0.050437
     78 C                    -0.303403
     79 C                    -0.077366
     80 N                    -0.424026
     81 S                     0.284640
     82 C                     0.111338
     83 C                    -0.314281
     84 C                    -0.232292
     85 H                     0.092953
     86 H                     0.106660
     87 H                     0.119390
     88 H                     0.108788
     89 H                     0.108623
     90 H                     0.115801
     91 H                     0.117227
     92 H                     0.137758
     93 H                     0.112502
     94 C                    -0.193286
     95 H                     0.119454
     96 H                     0.089441
     97 H                     0.107325
     98 C                    -0.178225
     99 H                     0.091938
    100 C                    -0.169214
    101 H                     0.100302
    102 H                     0.087940
    103 H                     0.091885
    104 C                    -0.178907
    105 H                     0.096563
    106 C                    -0.326342
    107 H                     0.096053
    108 H                     0.100934
    109 H                     0.099378
    110 H                     0.097444
  ----------------------------------------
  Sum of atomic charges =     0.000000

                    Cartesian Multipole Moments
 -----------------------------------------------------------------
    Charge (ESU x 10^10)
                 0.0000
    Dipole Moment (Debye)
         X       1.6791      Y       1.0056      Z      -0.2475
       Tot       1.9727
    Quadrupole Moments (Debye-Ang)
        XX    -496.1576     XY     -12.6854     YY    -414.4323
        XZ      20.8969     YZ      12.2126     ZZ    -420.0653

 Total job time:  84.72s(wall), 900.87s(cpu)
        *  Thank you very much for using Q-Chem.  Have a nice day.  *
