 Q-Chem 4.4, Q-Chem, Inc., Pleasanton, CA (2016)
 Q-Chem 4.4.2 for Intel X86 Linux

User input:
--------------------------------------------------------------
$comment
SP
$end

$rem
MEM_STATIC 5000
MEM_TOTAL 20000
JOBTYPE SP
EXCHANGE B3LYP
BASIS 6-31g(d,p)
$end

$molecule
0 1
C           3.222000    -30.786000      0.071000
C           2.397000    -30.265000      1.070000
N           4.333000    -30.155000     -0.363000
C           2.701000    -29.019000      1.605000
C           4.670000    -28.981000      0.146000
C           3.871000    -28.309000      1.099000
C           4.304000    -27.040000      1.741000
C           3.287000    -26.148000      2.256000
C           5.636000    -26.513000      1.799000
N           3.560000    -24.872000      2.701000
N           6.739000    -27.262000      1.481000
C           5.869000    -25.236000      2.359000
C           4.802000    -24.405000      2.744000
S           8.010000    -26.377000      1.957000
N           7.193000    -25.064000      2.582000
C           5.022000    -23.025000      3.305000
S           6.603000    -22.239000      3.416000
C           4.030000    -22.145000      3.515000
C           5.828000    -20.694000      3.646000
S           2.293000    -22.346000      3.285000
C           4.475000    -20.864000      3.877000
C           6.368000    -19.477000      4.025000
C           2.140000    -20.772000      4.135000
C           3.360000    -20.058000      4.275000
N           7.536000    -19.246000      3.468000
S           6.108000    -18.722000      5.582000
C           8.159000    -18.248000      4.127000
C           7.465000    -17.754000      5.236000
C           2.746000    -32.044000     -0.635000
H           1.436000    -30.669000      1.374000
H           2.027000    -28.457000      2.245000
H           5.517000    -28.454000     -0.290000
H           2.236000    -26.416000      2.158000
H           1.180000    -20.313000      4.331000
H           3.489000    -19.020000      4.559000
H           9.105000    -17.915000      3.720000
H           7.789000    -16.925000      5.852000
H           1.722000    -32.286000     -0.325000
C           3.588000    -33.285000     -0.253000
H           2.744000    -31.860000     -1.716000
H           3.396000    -33.297000      0.827000
H           4.639000    -32.993000     -0.370000
C           3.065000    -34.529000     -0.982000
H           1.970000    -34.582000     -1.025000
C           3.708000    -35.770000     -0.391000
H           3.310000    -34.516000     -2.051000
H           3.572000    -35.783000      0.698000
H           4.791000    -35.764000     -0.565000
C           3.150000    -36.971000     -1.119000
H           2.058000    -36.872000     -1.102000
C           3.585000    -38.232000     -0.403000
H           3.410000    -36.922000     -2.183000
H           3.374000    -38.403000      0.659000
H           4.677000    -38.290000     -0.496000
H           3.151000    -39.064000     -0.970000
C           2.867000    -19.215000     -0.444000
C           2.159000    -19.356000      0.762000
N           2.405000    -19.675000     -1.584000
C           0.981000    -20.107000      0.868000
C           1.178000    -20.327000     -1.581000
C           0.502000    -20.682000     -0.380000
C          -0.635000    -21.610000     -0.536000
C          -1.412000    -21.706000     -1.767000
C          -1.100000    -22.488000      0.496000
N          -2.418000    -22.502000     -2.020000
N          -0.535000    -22.588000      1.704000
C          -2.260000    -23.208000      0.296000
C          -2.873000    -23.207000     -1.018000
S          -1.419000    -23.639000      2.547000
N          -2.598000    -23.895000      1.386000
C          -4.037000    -24.034000     -1.367000
S          -5.344000    -24.561000     -0.322000
C          -4.316000    -24.585000     -2.622000
C          -6.336000    -25.150000     -1.602000
S          -3.431000    -24.434000     -4.187000
C          -5.568000    -25.219000     -2.683000
C          -7.732000    -25.568000     -1.578000
C          -4.826000    -25.276000     -4.973000
C          -5.792000    -25.628000     -4.022000
N          -8.284000    -25.799000     -0.398000
S          -8.893000    -25.572000     -2.853000
C          -9.611000    -26.166000     -0.431000
C         -10.174000    -26.040000     -1.682000
C           4.320000    -18.676000     -0.407000
H           2.482000    -18.723000      1.583000
H           0.409000    -20.222000      1.784000
H           0.930000    -20.920000     -2.460000
H          -1.101000    -21.088000     -2.608000
H          -4.772000    -25.458000     -6.039000
H          -6.658000    -26.188000     -4.356000
H         -10.149000    -26.321000      0.495000
H         -11.202000    -26.137000     -2.005000
H           4.786000    -18.952000      0.547000
C           4.397000    -17.196000     -0.620000
H           4.873000    -19.190000     -1.202000
H           3.543000    -16.788000     -0.064000
H           4.032000    -17.058000     -1.645000
C           5.735000    -16.596000     -0.310000
H           5.872000    -16.534000      0.777000
C           5.990000    -15.195000     -0.923000
H           6.477000    -17.328000     -0.652000
H           5.444000    -14.391000     -0.414000
H           5.567000    -15.155000     -1.934000
C           7.442000    -14.778000     -0.897000
H           8.030000    -15.603000     -1.319000
C           7.985000    -14.436000      0.531000
H           7.674000    -13.880000     -1.483000
H           7.547000    -13.532000      0.971000
H           9.063000    -14.264000      0.429000
H           7.741000    -15.284000      1.184000
$end

--------------------------------------------------------------

             Standard Nuclear Orientation (Angstroms)
    I     Atom           X                Y                Z
 ----------------------------------------------------------------
    1      C       3.3385042087     6.1089649584    -0.5826285538
    2      C       3.2974407340     5.3480238807     0.5875635105
    3      N       2.2690327072     6.2671761619    -1.3901172055
    4      C       2.1217413286     4.6808020174     0.9095928466
    5      C       1.1242075003     5.6713302365    -1.0981088516
    6      C       0.9798962157     4.8052862974     0.0097431912
    7      C      -0.3322061800     4.2191777189     0.3903716681
    8      C      -0.3407564109     2.9796734363     1.1378568032
    9      C      -1.6302443277     4.6733526483    -0.0147691723
   10      N      -1.4884179708     2.2559735222     1.3825226531
   11      N      -1.8313166915     5.8899307292    -0.6133021100
   12      C      -2.7831181138     3.9415675789     0.3512781547
   13      C      -2.6797590664     2.6961992927     0.9959871890
   14      S      -3.4378515292     6.0997995087    -0.6288876945
   15      N      -3.8920918561     4.6854223032     0.1295883077
   16      C      -3.8906110162     1.8783158306     1.3598899204
   17      S      -5.5474918892     2.3024448111     0.9076307244
   18      C      -3.8220817729     0.6159404565     1.8118591205
   19      C      -6.0693838888     0.6770515457     1.2629833291
   20      S      -2.4010141328    -0.3688142726     2.1601332737
   21      C      -5.0706403719    -0.0155387435     1.9230591419
   22      C      -7.3482422545     0.1569256084     1.3645721573
   23      C      -3.5570978147    -1.5247569662     2.9021925770
   24      C      -4.9209049720    -1.2703570545     2.5970586348
   25      N      -8.1632035394     0.6349582090     0.4507029452
   26      S      -8.0987021884    -0.3356841058     2.8665773361
   27      C      -9.4382333975     0.3772042843     0.8060559741
   28      C      -9.5855082653    -0.2630140658     2.0405532716
   29      C       4.6920316168     6.6494560757    -1.0108912156
   30      H       4.1508159619     5.0925727092     1.2085694842
   31      H       2.0498789556     3.9282435220     1.6894720105
   32      H       0.3090063117     5.7406719294    -1.8163516738
   33      H       0.6023744671     2.5011579966     1.3977724066
   34      H      -3.2338584877    -2.4501657214     3.3602667776
   35      H      -5.7666297504    -1.9302937698     2.7518944538
   36      H     -10.2055868337     0.6607815151     0.0973905677
   37      H     -10.5277048580    -0.5890145615     2.4620532805
   38      H       5.4829675564     6.2323106685    -0.3755566198
   39      C       4.7949191536     8.1829812970    -0.8301052910
   40      H       4.8820721678     6.3393846885    -2.0453772347
   41      H       4.6303323458     8.2396563152     0.2529954084
   42      H       3.8974813094     8.6096192004    -1.2950132550
   43      C       6.1790606922     8.6794737267    -1.2661711899
   44      H       6.9979833438     8.0188430671    -0.9553403318
   45      C       6.3627331791    10.1196271777    -0.8245452676
   46      H       6.3024845183     8.6573579680    -2.3557731596
   47      H       6.1567358583    10.2139643027     0.2493502630
   48      H       5.6446257666    10.7742386023    -1.3334722044
   49      C       7.7433608598    10.5615230329    -1.2515631369
   50      H       8.4443988865     9.7970686613    -0.8956007812
   51      C       8.0510875030    11.9045827596    -0.6242698374
   52      H       7.8314116875    10.5224307640    -2.3437242268
   53      H       8.0082440308    12.0668254598     0.4589880927
   54      H       7.3450937573    12.6260701690    -1.0549736208
   55      H       9.0588461021    12.1708154473    -0.9642871338
   56      C      -3.7755777981    -2.9610037218    -1.7678696018
   57      C      -3.5284177933    -3.1139227118    -0.3926937168
   58      N      -2.8262543898    -3.0840948138    -2.6669122312
   59      C      -2.2403205286    -3.2751190166     0.1343187953
   60      C      -1.5385104720    -3.3674783622    -2.2286755753
   61      C      -1.1735776230    -3.3388084052    -0.8533923138
   62      C       0.2751688033    -3.3810186104    -0.5747508043
   63      C       1.2362965578    -3.9937319845    -1.4853120383
   64      C       0.8789551627    -2.8489646972     0.6103625513
   65      N       2.5346105809    -4.0680963374    -1.3492545491
   66      N       0.2011298061    -2.2257699515     1.5802440363
   67      C       2.2214406387    -3.0701951429     0.8401229408
   68      C       3.0275924199    -3.6654420806    -0.2078114030
   69      S       1.2665858901    -1.8578755732     2.7318355696
   70      N       2.5951431331    -2.5932243702     2.0263599861
   71      C       4.4848203432    -3.8315169492    -0.1101798637
   72      S       5.4508850533    -4.0969617147     1.3300496501
   73      C       5.3969260413    -3.7877175499    -1.1697136330
   74      C       6.8976357928    -4.4802132550     0.4759913649
   75      S       5.1207536794    -3.5864562362    -2.9412874277
   76      C       6.7088562343    -4.1106117910    -0.7853186826
   77      C       8.1466853360    -5.0446601008     0.9713609208
   78      C       6.8751744118    -3.9560779700    -3.1824775347
   79      C       7.5139333006    -4.1526736751    -1.9517061462
   80      N       8.3496566675    -5.0346093228     2.2787119144
   81      S       9.3314527481    -5.9773412657     0.1347044658
   82      C       9.5331811117    -5.6028856862     2.6946913185
   83      C      10.2049727422    -6.2512458452     1.6816902773
   84      C      -5.1607577940    -2.4425171003    -2.2321399996
   85      H      -4.4010998906    -3.2599686663     0.2367151616
   86      H      -2.0233075186    -3.4069861901     1.1902455930
   87      H      -0.7281595078    -3.2132839886    -2.9395548970
   88      H       0.8554649322    -4.3965248122    -2.4226760076
   89      H       7.2590312683    -3.9510842849    -4.1949127064
   90      H       8.5833969945    -4.3297528186    -1.9532502509
   91      H       9.7493309492    -5.6813382575     3.7520793465
   92      H      11.0850016312    -6.8799707680     1.7095493140
   93      H      -5.5821261303    -1.7885747934    -1.4586697775
   94      C      -6.1150904546    -3.5480972570    -2.5617453547
   95      H      -4.9905441779    -1.8273024955    -3.1235256147
   96      H      -5.9360985468    -4.3112653766    -1.7933364023
   97      H      -5.6551380247    -4.0446265873    -3.4247612216
   98      C      -7.5365645284    -3.1059133304    -2.7356097631
   99      H      -7.9832144708    -2.8956637459    -1.7555684675
  100      C      -8.4511566808    -4.1015322869    -3.4944635621
  101      H      -7.4872324261    -2.1347829674    -3.2433736470
  102      H      -8.7330516665    -4.9767930403    -2.8960767051
  103      H      -7.8906729011    -4.5584006133    -4.3189508361
  104      C      -9.7533012481    -3.4929969794    -3.9602674966
  105      H      -9.5121893193    -2.5615732423    -4.4882522121
  106      C     -10.7652288452    -3.1840481839    -2.8063393447
  107      H     -10.3328487041    -4.1179737636    -4.6510299489
  108      H     -11.1685423005    -4.0774144424    -2.3145111379
  109      H     -11.6080866154    -2.6470542021    -3.2572276267
  110      H     -10.2287695156    -2.5940472336    -2.0519128962
 ----------------------------------------------------------------

    9   -5663.4821137821      8.23E-06 Convergence criterion met
 Total energy in the final basis set = -5663.4821137821

                    Orbital Energies (a.u.)
 --------------------------------------------------------------

 Alpha MOs
 -- Occupied --
-88.992 -88.989 -88.931 -88.928 -88.921 -88.920 -88.911 -88.908
-14.385 -14.385 -14.384 -14.381 -14.353 -14.351 -14.339 -14.336
-14.329 -14.327 -10.270 -10.265 -10.263 -10.259 -10.256 -10.255
-10.254 -10.253 -10.246 -10.240 -10.238 -10.235 -10.235 -10.232
-10.232 -10.232 -10.231 -10.231 -10.231 -10.230 -10.230 -10.228
-10.228 -10.226 -10.225 -10.225 -10.223 -10.219 -10.219 -10.216
-10.215 -10.214 -10.208 -10.204 -10.203 -10.202 -10.199 -10.196
-10.180 -10.178 -10.177 -10.177 -10.176 -10.175 -10.174 -10.173
-10.171 -10.171 -10.169 -10.169  -8.047  -8.044  -7.993  -7.988
 -7.980  -7.980  -7.969  -7.967  -6.012  -6.010  -6.006  -6.004
 -6.004  -6.002  -5.956  -5.953  -5.952  -5.950  -5.949  -5.945
 -5.944  -5.944  -5.940  -5.940  -5.937  -5.936  -5.933  -5.932
 -5.930  -5.928  -5.925  -5.923  -1.042  -1.030  -0.981  -0.979
 -0.965  -0.955  -0.940  -0.933  -0.917  -0.911  -0.903  -0.896
 -0.838  -0.838  -0.836  -0.830  -0.817  -0.812  -0.810  -0.806
 -0.805  -0.798  -0.796  -0.793  -0.790  -0.781  -0.768  -0.768
 -0.752  -0.748  -0.738  -0.737  -0.722  -0.720  -0.710  -0.709
 -0.693  -0.692  -0.681  -0.673  -0.655  -0.653  -0.648  -0.643
 -0.633  -0.633  -0.624  -0.622  -0.611  -0.610  -0.601  -0.601
 -0.593  -0.592  -0.582  -0.581  -0.577  -0.574  -0.573  -0.564
 -0.546  -0.541  -0.541  -0.536  -0.524  -0.523  -0.519  -0.516
 -0.507  -0.503  -0.501  -0.499  -0.487  -0.484  -0.477  -0.475
 -0.472  -0.472  -0.469  -0.467  -0.465  -0.458  -0.454  -0.451
 -0.448  -0.444  -0.441  -0.439  -0.439  -0.434  -0.431  -0.431
 -0.431  -0.427  -0.426  -0.422  -0.419  -0.419  -0.416  -0.414
 -0.412  -0.411  -0.403  -0.402  -0.401  -0.401  -0.399  -0.398
 -0.396  -0.394  -0.392  -0.387  -0.386  -0.383  -0.383  -0.380
 -0.379  -0.374  -0.373  -0.371  -0.364  -0.364  -0.360  -0.353
 -0.353  -0.349  -0.348  -0.347  -0.346  -0.341  -0.339  -0.339
 -0.337  -0.336  -0.335  -0.328  -0.327  -0.323  -0.320  -0.318
 -0.316  -0.313  -0.311  -0.307  -0.305  -0.303  -0.301  -0.300
 -0.298  -0.291  -0.290  -0.286  -0.286  -0.285  -0.284  -0.278
 -0.276  -0.269  -0.267  -0.265  -0.256  -0.250  -0.247  -0.247
 -0.242  -0.240  -0.228  -0.226  -0.195  -0.194

          Ground-State Mulliken Net Atomic Charges

     Atom                 Charge (a.u.)
  ----------------------------------------
      1 C                     0.268967
      2 C                    -0.112701
      3 N                    -0.487323
      4 C                    -0.076102
      5 C                     0.097047
      6 C                     0.016761
      7 C                     0.050515
      8 C                     0.048372
      9 C                     0.181162
     10 N                    -0.539000
     11 N                    -0.541502
     12 C                     0.236292
     13 C                     0.326487
     14 S                     0.611819
     15 N                    -0.578219
     16 C                    -0.225212
     17 S                     0.349963
     18 C                    -0.117506
     19 C                    -0.191123
     20 S                     0.325627
     21 C                     0.125758
     22 C                     0.021107
     23 C                    -0.315470
     24 C                    -0.098309
     25 N                    -0.407288
     26 S                     0.291239
     27 C                     0.110040
     28 C                    -0.307930
     29 C                    -0.227236
     30 H                     0.095330
     31 H                     0.095282
     32 H                     0.117255
     33 H                     0.114716
     34 H                     0.118778
     35 H                     0.108398
     36 H                     0.113058
     37 H                     0.135387
     38 H                     0.092890
     39 C                    -0.177975
     40 H                     0.113177
     41 H                     0.090496
     42 H                     0.119445
     43 C                    -0.176860
     44 H                     0.089983
     45 C                    -0.160249
     46 H                     0.094677
     47 H                     0.090870
     48 H                     0.094274
     49 C                    -0.176201
     50 H                     0.088478
     51 C                    -0.317625
     52 H                     0.096548
     53 H                     0.106147
     54 H                     0.099720
     55 H                     0.093569
     56 C                     0.267718
     57 C                    -0.110512
     58 N                    -0.482300
     59 C                    -0.034876
     60 C                     0.045763
     61 C                     0.034360
     62 C                     0.030055
     63 C                     0.050885
     64 C                     0.224473
     65 N                    -0.487078
     66 N                    -0.565246
     67 C                     0.256119
     68 C                     0.285201
     69 S                     0.605076
     70 N                    -0.585086
     71 C                    -0.224863
     72 S                     0.334366
     73 C                    -0.120631
     74 C                    -0.185125
     75 S                     0.261383
     76 C                     0.156623
     77 C                     0.048568
     78 C                    -0.296839
     79 C                    -0.099904
     80 N                    -0.431588
     81 S                     0.262917
     82 C                     0.129817
     83 C                    -0.315519
     84 C                    -0.228397
     85 H                     0.088934
     86 H                     0.108257
     87 H                     0.110432
     88 H                     0.107510
     89 H                     0.136412
     90 H                     0.107051
     91 H                     0.120961
     92 H                     0.137929
     93 H                     0.108702
     94 C                    -0.178439
     95 H                     0.117762
     96 H                     0.085751
     97 H                     0.107748
     98 C                    -0.173015
     99 H                     0.099504
    100 C                    -0.172648
    101 H                     0.098926
    102 H                     0.088292
    103 H                     0.091131
    104 C                    -0.177628
    105 H                     0.093004
    106 C                    -0.321878
    107 H                     0.088219
    108 H                     0.100645
    109 H                     0.100465
    110 H                     0.104807
  ----------------------------------------
  Sum of atomic charges =     0.000000

                    Cartesian Multipole Moments
 -----------------------------------------------------------------
    Charge (ESU x 10^10)
                 0.0000
    Dipole Moment (Debye)
         X       0.6045      Y      -1.3951      Z       2.8963
       Tot       3.2712
    Quadrupole Moments (Debye-Ang)
        XX    -372.8431     XY      -6.2461     YY    -441.4482
        XZ     -13.2851     YZ      -5.1396     ZZ    -442.2536

 Total job time:  88.51s(wall), 969.20s(cpu)
        *  Thank you very much for using Q-Chem.  Have a nice day.  *
