 Q-Chem 4.4, Q-Chem, Inc., Pleasanton, CA (2016)
 Q-Chem 4.4.2 for Intel X86 Linux

User input:
--------------------------------------------------------------
$comment
SP
$end

$rem
MEM_STATIC 5000
MEM_TOTAL 20000
JOBTYPE SP
EXCHANGE B3LYP
BASIS 6-31g(d,p)
$end

$molecule
0 1
C           3.335000    -17.752000     -6.129000
C           2.920000    -18.174000     -4.835000
N           2.631000    -16.973000     -6.881000
C           1.590000    -18.008000     -4.489000
C           1.360000    -16.703000     -6.523000
C           0.719000    -17.344000     -5.381000
C          -0.611000    -16.754000     -4.942000
C          -0.912000    -15.342000     -4.944000
C          -1.600000    -17.543000     -4.459000
N          -2.005000    -14.875000     -4.420000
N          -1.531000    -18.906000     -4.426000
C          -2.786000    -17.089000     -3.956000
C          -2.952000    -15.694000     -3.951000
S          -3.002000    -19.450000     -3.922000
N          -3.732000    -18.010000     -3.562000
C          -4.146000    -15.094000     -3.306000
S          -5.190000    -15.777000     -1.940000
C          -4.540000    -13.801000     -3.482000
C          -6.050000    -14.292000     -1.641000
S          -3.926000    -12.618000     -4.589000
C          -5.520000    -13.395000     -2.526000
C          -6.971000    -13.989000     -0.631000
C          -5.180000    -11.581000     -3.941000
C          -5.929000    -12.129000     -2.872000
N          -7.181000    -12.730000     -0.249000
S          -7.415000    -15.193000      0.564000
C          -7.693000    -12.621000      1.000000
C          -7.923000    -13.869000      1.643000
C           4.715000    -18.053000     -6.638000
H           3.630000    -18.790000     -4.290000
H           1.269000    -18.317000     -3.499000
H           0.916000    -15.868000     -7.062000
H          -0.172000    -14.573000     -5.159000
H          -5.238000    -10.589000     -4.369000
H          -6.762000    -11.645000     -2.376000
H          -7.888000    -11.683000      1.504000
H          -8.463000    -14.043000      2.565000
H           4.928000    -18.986000     -6.101000
C           5.836000    -17.014000     -6.335000
H           4.700000    -18.303000     -7.706000
H           6.834000    -17.469000     -6.311000
H           5.786000    -16.582000     -5.328000
C           5.760000    -15.862000     -7.379000
H           5.485000    -16.102000     -8.413000
C           6.995000    -14.981000     -7.431000
H           4.950000    -15.196000     -7.058000
H           7.918000    -15.503000     -7.714000
H           7.073000    -14.648000     -6.389000
C           6.792000    -13.973000     -8.478000
H           6.688000    -14.467000     -9.452000
C           7.959000    -12.922000     -8.535000
H           5.848000    -13.428000     -8.355000
H           7.890000    -12.199000     -9.357000
H           8.914000    -13.460000     -8.567000
H           8.118000    -12.281000     -7.659000
C           2.867000    -19.215000     -0.444000
C           2.159000    -19.356000      0.762000
N           2.405000    -19.675000     -1.584000
C           0.981000    -20.107000      0.868000
C           1.178000    -20.327000     -1.581000
C           0.502000    -20.682000     -0.380000
C          -0.635000    -21.610000     -0.536000
C          -1.412000    -21.706000     -1.767000
C          -1.100000    -22.488000      0.496000
N          -2.418000    -22.502000     -2.020000
N          -0.535000    -22.588000      1.704000
C          -2.260000    -23.208000      0.296000
C          -2.873000    -23.207000     -1.018000
S          -1.419000    -23.639000      2.547000
N          -2.598000    -23.895000      1.386000
C          -4.037000    -24.034000     -1.367000
S          -5.344000    -24.561000     -0.322000
C          -4.316000    -24.585000     -2.622000
C          -6.336000    -25.150000     -1.602000
S          -3.431000    -24.434000     -4.187000
C          -5.568000    -25.219000     -2.683000
C          -7.732000    -25.568000     -1.578000
C          -4.826000    -25.276000     -4.973000
C          -5.792000    -25.628000     -4.022000
N          -8.284000    -25.799000     -0.398000
S          -8.893000    -25.572000     -2.853000
C          -9.611000    -26.166000     -0.431000
C         -10.174000    -26.040000     -1.682000
C           4.320000    -18.676000     -0.407000
H           2.482000    -18.723000      1.583000
H           0.409000    -20.222000      1.784000
H           0.930000    -20.920000     -2.460000
H          -1.101000    -21.088000     -2.608000
H          -4.772000    -25.458000     -6.039000
H          -6.658000    -26.188000     -4.356000
H         -10.149000    -26.321000      0.495000
H         -11.202000    -26.137000     -2.005000
H           4.786000    -18.952000      0.547000
C           4.397000    -17.196000     -0.620000
H           4.873000    -19.190000     -1.202000
H           3.543000    -16.788000     -0.064000
H           4.032000    -17.058000     -1.645000
C           5.735000    -16.596000     -0.310000
H           5.872000    -16.534000      0.777000
C           5.990000    -15.195000     -0.923000
H           6.477000    -17.328000     -0.652000
H           5.444000    -14.391000     -0.414000
H           5.567000    -15.155000     -1.934000
C           7.442000    -14.778000     -0.897000
H           8.030000    -15.603000     -1.319000
C           7.985000    -14.436000      0.531000
H           7.674000    -13.880000     -1.483000
H           7.547000    -13.532000      0.971000
H           9.063000    -14.264000      0.429000
H           7.741000    -15.284000      1.184000
$end

--------------------------------------------------------------

             Standard Nuclear Orientation (Angstroms)
    I     Atom           X                Y                Z
 ----------------------------------------------------------------
    1      C      -5.3769712681    -2.0533091879     2.5137756781
    2      C      -4.5107694957    -2.1630179076     1.3902083742
    3      N      -5.4521277532    -0.9957034842     3.2511918959
    4      C      -3.4889798230    -1.2382304359     1.2602622433
    5      C      -4.5340659320    -0.0232835071     3.0836601661
    6      C      -3.3990441594    -0.1702208195     2.1802992184
    7      C      -2.6021578836     1.0922935335     1.8961324153
    8      C      -3.1875735935     2.4025367785     1.7383348060
    9      C      -1.2606238403     1.0463001273     1.7169620571
   10      N      -2.4848515657     3.4231417478     1.3486410182
   11      N      -0.5153490763    -0.0861152741     1.8776477274
   12      C      -0.4825343411     2.1126142975     1.3658611860
   13      C      -1.1619112910     3.3281860835     1.1802858834
   14      S       1.0651784918     0.3526160084     1.7251994797
   15      N       0.8816506428     1.9366651397     1.2856475735
   16      C      -0.4297761950     4.5138104120     0.6704485043
   17      S       1.0958083638     4.5713155969    -0.3743796670
   18      C      -0.9133771640     5.7874312174     0.7160680906
   19      C       0.9736815053     6.2703139287    -0.7386813262
   20      S      -2.3340567417     6.3836344942     1.5086242024
   21      C      -0.1643387892     6.6844754896    -0.1045567243
   22      C       1.7488512652     7.0486952203    -1.6066585196
   23      C      -1.8081681150     7.9548242239     0.9406515043
   24      C      -0.6595594905     7.9482410060     0.1131728707
   25      N       1.2693495936     8.1757406740    -2.1310168820
   26      S       3.0691462530     6.3323203303    -2.5113160029
   27      C       1.8925945435     8.5497695687    -3.2736866149
   28      C       2.9446120710     7.6787941544    -3.6718247183
   29      C      -6.3968185341    -3.1134526689     2.8139245641
   30      H      -4.5824732303    -3.0904589220     0.8286990338
   31      H      -2.8315937168    -1.3089801409     0.3991815347
   32      H      -4.7959320277     0.9197619746     3.5600773861
   33      H      -4.2615042836     2.5775113827     1.7030819940
   34      H      -2.4372231346     8.7902083231     1.2182036421
   35      H      -0.1762082150     8.8269835233    -0.2971247442
   36      H       1.6158051148     9.4090208398    -3.8711477978
   37      H       3.6790359890     7.8484853383    -4.4488616614
   38      H      -5.8980745993    -3.9963470063     2.3944259630
   39      C      -7.8062507376    -2.9593200125     2.1676158236
   40      H      -6.4850235843    -3.2871902053     3.8934541550
   41      H      -8.3159728348    -3.9222241236     2.0387590953
   42      H      -7.7869783958    -2.6000021247     1.1314246094
   43      C      -8.6555471148    -1.9751592137     3.0237344987
   44      H      -8.5386852286    -1.9855293650     4.1139715186
   45      C     -10.1437313637    -2.0100562312     2.7267835945
   46      H      -8.3360242492    -0.9617630746     2.7523852708
   47      H     -10.6264221637    -2.9766204064     2.9198257833
   48      H     -10.1589033957    -1.8072714510     1.6491077887
   49      C     -10.8108924346    -1.0648983645     3.6295874007
   50      H     -10.6663023730    -1.3820042753     4.6698112013
   51      C     -12.3458445770    -0.9229232914     3.3238031645
   52      H     -10.3618786598    -0.0647494608     3.5924551986
   53      H     -12.9005061840    -0.2897859765     4.0271250270
   54      H     -12.7866300733    -1.9255410387     3.2694083201
   55      H     -12.6412573456    -0.5196024790     2.3472778866
   56      C      -2.8570230888    -3.0351846630    -2.7173236065
   57      C      -1.9453692030    -2.7429413556    -3.7464310070
   58      N      -2.4906638030    -3.1077155603    -1.4582905876
   59      C      -0.5648114963    -2.6390902954    -3.5314975849
   60      C      -1.1529706906    -2.8936055342    -1.1494604829
   61      C      -0.1431724103    -2.7916872978    -2.1471187943
   62      C       1.2480283187    -2.8497959328    -1.6577590922
   63      C       1.6281300360    -2.4407269830    -0.3099863818
   64      C       2.3579836624    -3.2901145690    -2.4491197140
   65      N       2.8180898185    -2.4702137590     0.2311118034
   66      N       2.2520160103    -3.7284938361    -3.7081206969
   67      C       3.6362493770    -3.1673026188    -1.9441900282
   68      C       3.8128758432    -2.7776305188    -0.5587930649
   69      S       3.7463255139    -4.0529003695    -4.2165550666
   70      N       4.5493960069    -3.5319049674    -2.8428230788
   71      C       5.1222118051    -2.7356163051     0.1079153758
   72      S       6.6889385209    -2.3903877428    -0.6021463381
   73      C       5.3720970186    -2.9888342946     1.4606551992
   74      C       7.5120397051    -2.2460317572     0.9048542558
   75      S       4.2339974963    -3.3734096715     2.8067912461
   76      C       6.7041738508    -2.7442950133     1.8334190025
   77      C       8.8506481024    -1.7436978812     1.1875276290
   78      C       5.6321714712    -3.1977972917     3.9412756347
   79      C       6.8093533234    -2.9155250783     3.2369842997
   80      N       9.6867614833    -1.6165907332     0.1700684469
   81      S       9.4671412720    -1.0300324691     2.6311965146
   82      C      10.9287765301    -1.1139083692     0.4885273367
   83      C      11.0082131905    -0.6552305120     1.7851191924
   84      C      -4.2964245234    -3.4758784775    -3.0874742135
   85      H      -2.3768498940    -2.4434785488    -4.6968022190
   86      H       0.1589631988    -2.4029077488    -4.3059864456
   87      H      -0.8166106222    -3.2051025844    -0.1617229205
   88      H       0.8332922325    -2.1191687017     0.3613996009
   89      H       5.4510408705    -3.3585400010     4.9966189376
   90      H       7.7343145319    -2.8388382059     3.7970538367
   91      H      11.6515217103    -0.9302798485    -0.2956059242
   92      H      11.7933303783    -0.1111383384     2.2931317003
   93      H      -4.2811477218    -3.9915915749    -4.0555933284
   94      C      -5.2649934141    -2.3344941584    -3.1160073526
   95      H      -4.6122830308    -4.2058732308    -2.3329074084
   96      H      -4.7073310580    -1.5049352463    -3.5696158931
   97      H      -5.2953040529    -1.9886100785    -2.0756518996
   98      C      -6.5873464208    -2.6618387534    -3.7409649846
   99      H      -6.4808828375    -2.7119840186    -4.8319887963
  100      C      -7.7408630323    -1.6839293219    -3.3993693600
  101      H      -6.8202469648    -3.6869217224    -3.4274139629
  102      H      -7.6645349896    -0.7214812713    -3.9204075350
  103      H      -7.6657443078    -1.3818977985    -2.3478066485
  104      C      -9.1111537471    -2.2214546625    -3.7403075731
  105      H      -9.1881222686    -3.2272990332    -3.3080970355
  106      C      -9.4061483028    -2.2965682818    -5.2759941154
  107      H      -9.9483810341    -1.6326277191    -3.3453932777
  108      H      -9.4880862680    -1.3177613423    -5.7637267727
  109      H     -10.3714162570    -2.8037599221    -5.3903899925
  110      H      -8.5732101260    -2.8392797030    -5.7415339171
 ----------------------------------------------------------------

   10   -5663.4740744122      9.55E-06 Convergence criterion met
 Total energy in the final basis set = -5663.4740744122

                    Orbital Energies (a.u.)
 --------------------------------------------------------------

 Alpha MOs
 -- Occupied --
-88.995 -88.987 -88.930 -88.924 -88.922 -88.916 -88.912 -88.906
-14.389 -14.386 -14.384 -14.376 -14.357 -14.345 -14.342 -14.340
-14.339 -14.317 -10.273 -10.271 -10.266 -10.260 -10.257 -10.256
-10.245 -10.243 -10.243 -10.241 -10.240 -10.239 -10.237 -10.237
-10.236 -10.236 -10.236 -10.235 -10.234 -10.234 -10.234 -10.232
-10.232 -10.228 -10.224 -10.224 -10.220 -10.220 -10.217 -10.216
-10.214 -10.207 -10.207 -10.207 -10.204 -10.195 -10.189 -10.188
-10.184 -10.184 -10.181 -10.180 -10.179 -10.178 -10.177 -10.174
-10.172 -10.167 -10.164 -10.164  -8.051  -8.042  -7.991  -7.984
 -7.983  -7.975  -7.971  -7.966  -6.016  -6.010  -6.008  -6.007
 -6.001  -6.000  -5.955  -5.951  -5.948  -5.948  -5.946  -5.944
 -5.943  -5.940  -5.940  -5.940  -5.936  -5.935  -5.932  -5.931
 -5.931  -5.927  -5.927  -5.923  -1.045  -1.027  -0.985  -0.968
 -0.968  -0.965  -0.945  -0.943  -0.921  -0.908  -0.907  -0.894
 -0.842  -0.842  -0.840  -0.829  -0.817  -0.812  -0.810  -0.805
 -0.803  -0.796  -0.795  -0.794  -0.789  -0.781  -0.774  -0.764
 -0.757  -0.746  -0.742  -0.735  -0.724  -0.716  -0.715  -0.700
 -0.698  -0.686  -0.685  -0.674  -0.661  -0.655  -0.652  -0.643
 -0.639  -0.632  -0.632  -0.623  -0.616  -0.605  -0.604  -0.597
 -0.592  -0.589  -0.588  -0.581  -0.576  -0.573  -0.570  -0.569
 -0.550  -0.550  -0.546  -0.534  -0.528  -0.520  -0.516  -0.511
 -0.505  -0.502  -0.499  -0.494  -0.493  -0.484  -0.483  -0.478
 -0.474  -0.474  -0.470  -0.466  -0.465  -0.459  -0.457  -0.456
 -0.449  -0.448  -0.443  -0.438  -0.435  -0.433  -0.433  -0.432
 -0.429  -0.426  -0.423  -0.423  -0.421  -0.417  -0.416  -0.414
 -0.411  -0.407  -0.405  -0.403  -0.402  -0.401  -0.400  -0.399
 -0.394  -0.392  -0.391  -0.390  -0.388  -0.386  -0.381  -0.380
 -0.375  -0.374  -0.370  -0.368  -0.364  -0.360  -0.360  -0.357
 -0.352  -0.351  -0.351  -0.346  -0.345  -0.344  -0.342  -0.340
 -0.339  -0.331  -0.331  -0.330  -0.327  -0.325  -0.324  -0.319
 -0.316  -0.315  -0.310  -0.310  -0.309  -0.306  -0.305  -0.299
 -0.293  -0.291  -0.290  -0.289  -0.286  -0.284  -0.281  -0.277
 -0.274  -0.271  -0.270  -0.261  -0.259  -0.259  -0.248  -0.246
 -0.243  -0.234  -0.232  -0.223  -0.199  -0.185

          Ground-State Mulliken Net Atomic Charges

     Atom                 Charge (a.u.)
  ----------------------------------------
      1 C                     0.271071
      2 C                    -0.115153
      3 N                    -0.459391
      4 C                    -0.050758
      5 C                     0.060693
      6 C                     0.009106
      7 C                    -0.012272
      8 C                     0.065081
      9 C                     0.262945
     10 N                    -0.496626
     11 N                    -0.569953
     12 C                     0.206808
     13 C                     0.263719
     14 S                     0.630865
     15 N                    -0.560321
     16 C                    -0.213549
     17 S                     0.297374
     18 C                    -0.092624
     19 C                    -0.192297
     20 S                     0.291801
     21 C                     0.134327
     22 C                     0.053476
     23 C                    -0.311695
     24 C                    -0.063592
     25 N                    -0.434542
     26 S                     0.256331
     27 C                     0.130462
     28 C                    -0.318927
     29 C                    -0.220768
     30 H                     0.105720
     31 H                     0.116386
     32 H                     0.102529
     33 H                     0.116526
     34 H                     0.120228
     35 H                     0.120590
     36 H                     0.120420
     37 H                     0.135025
     38 H                     0.081770
     39 C                    -0.183165
     40 H                     0.115132
     41 H                     0.093203
     42 H                     0.093770
     43 C                    -0.172692
     44 H                     0.091135
     45 C                    -0.154007
     46 H                     0.107467
     47 H                     0.084833
     48 H                     0.086510
     49 C                    -0.174407
     50 H                     0.097470
     51 C                    -0.327489
     52 H                     0.092224
     53 H                     0.095582
     54 H                     0.095901
     55 H                     0.099698
     56 C                     0.272258
     57 C                    -0.124675
     58 N                    -0.490230
     59 C                    -0.041755
     60 C                     0.046238
     61 C                     0.031415
     62 C                     0.026471
     63 C                     0.047492
     64 C                     0.213198
     65 N                    -0.496263
     66 N                    -0.559405
     67 C                     0.260183
     68 C                     0.287115
     69 S                     0.605367
     70 N                    -0.582408
     71 C                    -0.224890
     72 S                     0.339026
     73 C                    -0.120750
     74 C                    -0.185933
     75 S                     0.260219
     76 C                     0.156063
     77 C                     0.047101
     78 C                    -0.295456
     79 C                    -0.100104
     80 N                    -0.430875
     81 S                     0.265580
     82 C                     0.130325
     83 C                    -0.313600
     84 C                    -0.224486
     85 H                     0.095084
     86 H                     0.122580
     87 H                     0.122561
     88 H                     0.113661
     89 H                     0.138191
     90 H                     0.108789
     91 H                     0.122273
     92 H                     0.139400
     93 H                     0.099776
     94 C                    -0.180864
     95 H                     0.115987
     96 H                     0.090531
     97 H                     0.110214
     98 C                    -0.173439
     99 H                     0.098493
    100 C                    -0.174365
    101 H                     0.094726
    102 H                     0.092534
    103 H                     0.092922
    104 C                    -0.179157
    105 H                     0.091431
    106 C                    -0.320343
    107 H                     0.091296
    108 H                     0.103525
    109 H                     0.102959
    110 H                     0.102064
  ----------------------------------------
  Sum of atomic charges =     0.000000

                    Cartesian Multipole Moments
 -----------------------------------------------------------------
    Charge (ESU x 10^10)
                 0.0000
    Dipole Moment (Debye)
         X       2.9762      Y      -0.4933      Z      -2.8928
       Tot       4.1797
    Quadrupole Moments (Debye-Ang)
        XX    -414.3640     XY      11.5580     YY    -438.6617
        XZ      19.3525     YZ      -5.3548     ZZ    -420.1291

 Total job time:  98.35s(wall), 1085.44s(cpu)
        *  Thank you very much for using Q-Chem.  Have a nice day.  *
