 Q-Chem 4.4, Q-Chem, Inc., Pleasanton, CA (2016)
 Q-Chem 4.4.2 for Intel X86 Linux

User input:
--------------------------------------------------------------
$comment
SP
$end

$rem
MEM_STATIC 5000
MEM_TOTAL 20000
JOBTYPE SP
EXCHANGE B3LYP
BASIS 6-31g(d,p)
$end

$molecule
0 1
C          27.326000     30.690000      0.488000
C          25.995000     30.573000      1.046000
N          27.772000     29.932000     -0.494000
C          25.102000     29.674000      0.466000
C          26.872000     29.102000     -1.078000
C          25.502000     28.902000     -0.641000
C          24.556000     27.939000     -1.386000
C          25.082000     26.839000     -2.117000
C          23.099000     28.042000     -1.451000
N          24.350000     25.985000     -2.832000
N          22.370000     29.043000     -0.894000
C          22.375000     27.130000     -2.234000
C          23.017000     26.163000     -3.012000
S          20.856000     28.796000     -1.391000
N          21.060000     27.459000     -2.378000
C          22.313000     25.174000     -3.895000
S          20.591000     25.142000     -4.109000
C          22.872000     24.090000     -4.585000
C          20.707000     23.797000     -5.286000
S          24.564000     23.510000     -4.574000
C          21.968000     23.317000     -5.348000
C          19.644000     23.346000     -6.033000
C          24.088000     22.155000     -5.649000
C          22.648000     22.183000     -5.877000
N          18.879000     24.239000     -6.544000
S          19.247000     21.715000     -6.430000
C          17.745000     23.670000     -7.060000
C          17.770000     22.306000     -7.135000
C          28.464000     31.572000      1.074000
H          25.668000     31.196000      1.873000
H          24.112000     29.558000      0.897000
H          27.294000     28.560000     -1.924000
H          26.147000     26.616000     -2.072000
H          24.855000     21.454000     -5.951000
H          22.188000     21.487000     -6.569000
H          16.931000     24.284000     -7.423000
H          17.046000     21.541000     -7.383000
H          29.178000     31.964000      0.339000
C          29.126000     30.814000      2.201000
H          28.006000     32.452000      1.541000
H          29.186000     29.742000      1.979000
H          28.446000     30.822000      3.061000
C          30.585000     31.311000      2.418000
H          31.412000     30.848000      1.866000
C          31.086000     30.997000      3.831000
H          30.487000     32.381000      2.198000
H          30.918000     29.917000      3.920000
H          30.598000     31.582000      4.621000
C          32.635000     31.220000      3.941000
H          33.073000     30.648000      3.114000
C          33.101000     30.535000      5.286000
H          32.851000     32.286000      3.797000
H          32.672000     31.067000      6.145000
H          34.193000     30.614000      5.352000
H          32.890000     29.462000      5.371000
C          19.400000     19.938000     -9.932000
C          18.179000     19.285000     -9.559000
N          19.316000     20.995000    -10.757000
C          16.931000     19.600000    -10.204000
C          18.113000     21.386000    -11.233000
C          16.881000     20.705000    -11.082000
C          15.613000     21.466000    -11.575000
C          15.673000     22.138000    -12.799000
C          14.409000     21.461000    -10.853000
N          14.584000     22.802000    -13.229000
N          14.155000     20.809000     -9.707000
C          13.355000     22.202000    -11.330000
C          13.418000     22.881000    -12.528000
S          12.660000     21.231000     -9.346000
N          12.252000     22.204000    -10.529000
C          12.245000     23.732000    -12.964000
S          10.849000     24.421000    -11.999000
C          12.230000     24.402000    -14.168000
C          10.394000     25.578000    -13.189000
S          13.401000     24.204000    -15.492000
C          11.271000     25.399000    -14.224000
C           9.155000     26.297000    -13.196000
C          12.382000     25.399000    -16.301000
C          11.360000     26.018000    -15.505000
N           8.729000     26.887000    -14.304000
S           8.088000     26.137000    -11.861000
C           7.421000     27.118000    -14.104000
C           6.883000     26.746000    -12.910000
C          20.831000     19.362000     -9.530000
H          18.322000     18.425000     -8.913000
H          16.014000     19.068000     -9.970000
H          18.119000     22.294000    -11.834000
H          16.590000     22.226000    -13.380000
H          12.726000     25.840000    -17.227000
H          10.793000     26.890000    -15.813000
H           6.944000     27.621000    -14.935000
H           5.832000     26.735000    -12.654000
H          21.538000     20.130000     -9.866000
C          21.237000     17.963000    -10.065000
H          20.874000     19.328000     -8.434000
H          20.380000     17.287000     -9.957000
H          21.997000     17.607000     -9.359000
C          21.722000     18.004000    -11.549000
H          22.664000     18.551000    -11.682000
C          20.672000     18.498000    -12.562000
H          21.961000     16.987000    -11.883000
H          20.685000     19.589000    -12.449000
H          19.672000     18.160000    -12.265000
C          20.978000     18.102000    -14.053000
H          22.039000     18.273000    -14.273000
C          20.026000     18.867000    -15.047000
H          20.977000     17.015000    -14.197000
H          20.130000     19.946000    -14.879000
H          18.982000     18.542000    -14.960000
H          20.378000     18.607000    -16.053000
$end

--------------------------------------------------------------

             Standard Nuclear Orientation (Angstroms)
    I     Atom           X                Y                Z
 ----------------------------------------------------------------
    1      C     -12.4380702002     2.4429640862     1.2864345961
    2      C     -11.8203554879     3.1948102409     0.2141613595
    3      N     -11.9133818537     1.3501504736     1.8043772059
    4      C     -10.5646924195     2.8003260014    -0.2438151065
    5      C     -10.6689052907     1.0142781152     1.3819747402
    6      C      -9.9224955129     1.6899659539     0.3359406163
    7      C      -8.5048399465     1.2313515343    -0.0605887131
    8      C      -8.1066813817    -0.1192899348     0.1350496758
    9      C      -7.4537425391     2.0753191435    -0.6268006124
   10      N      -6.8904029300    -0.5963381598    -0.1284967507
   11      N      -7.5678031572     3.4112282938    -0.8413417913
   12      C      -6.1833456086     1.5303321624    -0.8678189301
   13      C      -5.8734661577     0.2139912511    -0.5160259070
   14      S      -6.1011740006     3.8960072977    -1.3041616637
   15      N      -5.2435905771     2.4621716163    -1.1945263112
   16      C      -4.5315995624    -0.4285797802    -0.7158320888
   17      S      -3.1586814785     0.4106995580    -1.3660706043
   18      C      -4.1878339948    -1.7737765584    -0.5263383880
   19      C      -2.1132273624    -1.0294185288    -1.1638440306
   20      S      -5.2415287851    -3.1424623434    -0.0617832127
   21      C      -2.8400692583    -2.1053718655    -0.7918355956
   22      C      -0.7502038378    -1.0116361932    -1.3461340742
   23      C      -3.8380731754    -4.2500765906    -0.2091909154
   24      C      -2.6731095911    -3.5159621548    -0.6890907408
   25      N      -0.1175364755    -0.0065265444    -0.8631417319
   26      S       0.2329223037    -2.2181402208    -2.0899015253
   27      C       1.1784832057     0.0103482814    -1.3058845762
   28      C       1.5801063911    -1.1257460882    -1.9498833343
   29      C     -13.8673730320     2.6945790199     1.8433433321
   30      H     -12.2926438107     4.0767954737    -0.2077779599
   31      H     -10.1076939501     3.3400144075    -1.0679545506
   32      H     -10.2739476303     0.1425686665     1.9032185253
   33      H      -8.8331989167    -0.8564005269     0.4738995634
   34      H      -3.9977847279    -5.3006638825    -0.0051013221
   35      H      -1.7082770155    -4.0044061913    -0.7625790003
   36      H       1.8260196303     0.8520707776    -1.0971722904
   37      H       2.4640184028    -1.4201984107    -2.5002490174
   38      H     -14.0060694571     2.4507184970     2.9039942394
   39      C     -14.8624175719     2.0050979257     0.9392198979
   40      H     -14.0831243075     3.7659602892     1.7547625055
   41      H     -14.4698812267     1.0506234520     0.5691365333
   42      H     -14.9376330858     2.5854170577     0.0120541460
   43      C     -16.1765144708     1.6832073681     1.7088398102
   44      H     -16.2817119367     0.7318749626     2.2444722844
   45      C     -17.3629244534     1.5093187421     0.7557605381
   46      H     -16.2551779911     2.5476587980     2.3792425071
   47      H     -17.0073716336     0.7463404674     0.0529153598
   48      H     -17.6863270166     2.4372524998     0.2670697120
   49      C     -18.5972797396     0.8913178672     1.5011946037
   50      H     -18.2178598645    -0.0085373530     2.0004521937
   51      C     -19.6138693157     0.4189951667     0.3881524211
   52      H     -18.9475661880     1.6038575291     2.2583832422
   53      H     -20.0095461486     1.2895350079    -0.1508709819
   54      H     -20.4553120397    -0.0828358591     0.8813063158
   55      H     -19.2270241592    -0.3163808044    -0.3278419965
   56      C       2.8753935189    -4.5992939726    -0.4187956977
   57      C       3.6803672239    -4.3855150841    -1.5861409428
   58      N       3.1821581424    -3.9015569445     0.6875444422
   59      C       4.9007395111    -3.6238813328    -1.5281796683
   60      C       4.2403785126    -3.0608302986     0.6837556573
   61      C       5.2045830944    -2.9184325740    -0.3430931205
   62      C       6.2194830318    -1.7476788694    -0.1718976758
   63      C       6.7868619421    -1.5364844180     1.0877999371
   64      C       6.6101343798    -0.9325268988    -1.2460688861
   65      N       7.6599279687    -0.5241810949     1.2450090182
   66      N       6.2259153867    -1.0433050479    -2.5278800918
   67      C       7.4677970238     0.1119093668    -0.9988975361
   68      C       8.0142974096     0.3335638621     0.2470641860
   69      S       6.9414103787     0.1839110160    -3.2527508726
   70      N       7.7334916001     0.8983181554    -2.0801845514
   71      C       8.9001946532     1.5405631249     0.4674385340
   72      S       9.0814264087     3.0796662824    -0.5088188713
   73      C       9.5085435742     1.7950285890     1.6773558526
   74      C       9.8614679215     3.9663743095     0.7430030462
   75      S       9.5864853719     0.6851205563     3.0649617892
   76      C       9.9563095348     3.0995909766     1.7975582710
   77      C      10.5523644482     5.2071408116     0.5551427877
   78      C      10.5108415963     1.9968577922     3.8037296786
   79      C      10.5543763825     3.2384063238     3.0840610285
   80      N      11.4128080715     5.6394914156     1.4661585539
   81      S      10.4906090377     5.9744760359    -0.9790335135
   82      C      12.1514162630     6.5728221684     0.8436020140
   83      C      11.8621155549     6.8519066282    -0.4571212327
   84      C       1.7531240535    -5.7295131692    -0.3535514290
   85      H       3.3939886994    -4.9992050200    -2.4339245256
   86      H       5.5464784726    -3.5083344678    -2.3932456285
   87      H       4.3785117601    -2.4766301784     1.5922326386
   88      H       6.4865876695    -2.0968092976     1.9721445478
   89      H      10.7458763358     1.9429187781     4.8583112326
   90      H      10.9203463473     4.1708869340     3.5003336513
   91      H      12.8923989818     7.0300122928     1.4862689578
   92      H      12.4473303279     7.4660975291    -1.1283523456
   93      H       1.2587523153    -5.5671363144     0.6117461114
   94      C       2.1910329369    -7.2100927541    -0.5096984836
   95      H       1.0218847593    -5.5105284557    -1.1419395250
   96      H       2.9148279874    -7.2740858906    -1.3313520623
   97      H       1.2896253716    -7.7298303235    -0.8562663127
   98      C       2.7958795020    -7.8002068770     0.8037275534
   99      H       2.0628513552    -7.8921049886     1.6151993479
  100      C       4.0650154389    -7.0896458240     1.3107797831
  101      H       3.1186041263    -8.8330886317     0.6249257141
  102      H       3.6859558966    -6.1854916435     1.8027534422
  103      H       4.6762794970    -6.7573062972     0.4632187586
  104      C       4.9206066525    -7.9398843799     2.3200325133
  105      H       4.2614571455    -8.4210147294     3.0531065302
  106      C       6.0340076641    -7.0574756171     2.9991922608
  107      H       5.3101165286    -8.8548165812     1.8579858452
  108      H       5.5578191467    -6.1980176621     3.4868986472
  109      H       6.8090705902    -6.7427841323     2.2897017888
  110      H       6.5057496785    -7.7028941265     3.7504807671
 ----------------------------------------------------------------

   10   -5663.4789314243      5.17E-06 Convergence criterion met
 Total energy in the final basis set = -5663.4789314243

                    Orbital Energies (a.u.)
 --------------------------------------------------------------

 Alpha MOs
 -- Occupied --
-88.999 -88.989 -88.930 -88.922 -88.920 -88.918 -88.911 -88.908
-14.393 -14.390 -14.390 -14.387 -14.354 -14.347 -14.343 -14.334
-14.331 -14.329 -10.269 -10.268 -10.264 -10.263 -10.260 -10.255
-10.252 -10.251 -10.249 -10.246 -10.241 -10.239 -10.238 -10.236
-10.235 -10.234 -10.233 -10.232 -10.232 -10.230 -10.230 -10.228
-10.227 -10.226 -10.225 -10.224 -10.224 -10.224 -10.223 -10.222
-10.220 -10.210 -10.210 -10.209 -10.206 -10.203 -10.202 -10.197
-10.194 -10.193 -10.182 -10.181 -10.180 -10.179 -10.177 -10.174
-10.174 -10.174 -10.172 -10.171  -8.055  -8.045  -7.993  -7.981
 -7.980  -7.979  -7.970  -7.967  -6.020  -6.014  -6.013  -6.010
 -6.004  -6.002  -5.956  -5.953  -5.950  -5.946  -5.944  -5.943
 -5.942  -5.940  -5.939  -5.938  -5.937  -5.935  -5.935  -5.931
 -5.931  -5.928  -5.926  -5.923  -1.066  -1.035  -0.985  -0.980
 -0.961  -0.955  -0.941  -0.938  -0.924  -0.912  -0.908  -0.901
 -0.840  -0.834  -0.833  -0.825  -0.822  -0.818  -0.807  -0.804
 -0.804  -0.801  -0.797  -0.795  -0.779  -0.777  -0.768  -0.767
 -0.749  -0.745  -0.741  -0.736  -0.720  -0.715  -0.705  -0.705
 -0.691  -0.690  -0.678  -0.674  -0.657  -0.654  -0.648  -0.640
 -0.639  -0.630  -0.630  -0.624  -0.613  -0.604  -0.600  -0.599
 -0.595  -0.594  -0.584  -0.582  -0.578  -0.577  -0.569  -0.566
 -0.559  -0.543  -0.542  -0.535  -0.531  -0.521  -0.521  -0.516
 -0.505  -0.504  -0.498  -0.497  -0.491  -0.486  -0.484  -0.477
 -0.476  -0.470  -0.468  -0.467  -0.463  -0.454  -0.454  -0.449
 -0.448  -0.443  -0.442  -0.436  -0.434  -0.433  -0.430  -0.430
 -0.426  -0.421  -0.419  -0.418  -0.416  -0.416  -0.414  -0.412
 -0.412  -0.409  -0.405  -0.403  -0.400  -0.398  -0.397  -0.395
 -0.395  -0.394  -0.391  -0.389  -0.388  -0.387  -0.384  -0.382
 -0.378  -0.376  -0.371  -0.369  -0.365  -0.364  -0.363  -0.359
 -0.356  -0.354  -0.351  -0.351  -0.348  -0.347  -0.346  -0.344
 -0.339  -0.336  -0.334  -0.333  -0.328  -0.327  -0.322  -0.320
 -0.318  -0.314  -0.313  -0.313  -0.305  -0.304  -0.302  -0.302
 -0.299  -0.295  -0.295  -0.293  -0.288  -0.284  -0.284  -0.274
 -0.270  -0.267  -0.267  -0.265  -0.256  -0.253  -0.253  -0.249
 -0.244  -0.240  -0.230  -0.228  -0.193  -0.193

          Ground-State Mulliken Net Atomic Charges

     Atom                 Charge (a.u.)
  ----------------------------------------
      1 C                     0.245060
      2 C                    -0.126019
      3 N                    -0.455386
      4 C                    -0.067501
      5 C                     0.058661
      6 C                     0.036353
      7 C                     0.041421
      8 C                     0.059026
      9 C                     0.208294
     10 N                    -0.518531
     11 N                    -0.543684
     12 C                     0.200238
     13 C                     0.314479
     14 S                     0.606829
     15 N                    -0.555513
     16 C                    -0.222986
     17 S                     0.362473
     18 C                    -0.144209
     19 C                    -0.230853
     20 S                     0.284954
     21 C                     0.210818
     22 C                     0.023426
     23 C                    -0.302377
     24 C                    -0.114842
     25 N                    -0.404144
     26 S                     0.252829
     27 C                     0.112157
     28 C                    -0.302136
     29 C                    -0.221250
     30 H                     0.093356
     31 H                     0.117249
     32 H                     0.101399
     33 H                     0.116314
     34 H                     0.138379
     35 H                     0.106033
     36 H                     0.110449
     37 H                     0.145787
     38 H                     0.119221
     39 C                    -0.169692
     40 H                     0.091353
     41 H                     0.107090
     42 H                     0.094712
     43 C                    -0.177767
     44 H                     0.098814
     45 C                    -0.172375
     46 H                     0.088834
     47 H                     0.093780
     48 H                     0.088497
     49 C                    -0.187653
     50 H                     0.092456
     51 C                    -0.320010
     52 H                     0.099163
     53 H                     0.103877
     54 H                     0.096475
     55 H                     0.106573
     56 C                     0.274037
     57 C                    -0.138328
     58 N                    -0.468761
     59 C                    -0.088640
     60 C                     0.069860
     61 C                     0.046984
     62 C                     0.001683
     63 C                     0.080060
     64 C                     0.266128
     65 N                    -0.550136
     66 N                    -0.557250
     67 C                     0.165126
     68 C                     0.312429
     69 S                     0.616071
     70 N                    -0.530827
     71 C                    -0.226024
     72 S                     0.301695
     73 C                    -0.103617
     74 C                    -0.225628
     75 S                     0.299951
     76 C                     0.150883
     77 C                     0.076809
     78 C                    -0.305905
     79 C                    -0.081559
     80 N                    -0.423703
     81 S                     0.285230
     82 C                     0.128576
     83 C                    -0.313654
     84 C                    -0.235759
     85 H                     0.087940
     86 H                     0.119227
     87 H                     0.099573
     88 H                     0.131678
     89 H                     0.116595
     90 H                     0.123538
     91 H                     0.107204
     92 H                     0.134281
     93 H                     0.123607
     94 C                    -0.181000
     95 H                     0.107245
     96 H                     0.097074
     97 H                     0.097664
     98 C                    -0.182105
     99 H                     0.094918
    100 C                    -0.174629
    101 H                     0.085451
    102 H                     0.117917
    103 H                     0.089824
    104 C                    -0.191384
    105 H                     0.091221
    106 C                    -0.317217
    107 H                     0.089317
    108 H                     0.110714
    109 H                     0.106319
    110 H                     0.099401
  ----------------------------------------
  Sum of atomic charges =     0.000000

                    Cartesian Multipole Moments
 -----------------------------------------------------------------
    Charge (ESU x 10^10)
                 0.0000
    Dipole Moment (Debye)
         X       2.1382      Y       0.6319      Z      -4.3537
       Tot       4.8914
    Quadrupole Moments (Debye-Ang)
        XX    -421.1788     XY       2.5022     YY    -405.3749
        XZ      -7.1427     YZ      -4.5157     ZZ    -440.2375

 Total job time:  94.83s(wall), 1022.60s(cpu)
        *  Thank you very much for using Q-Chem.  Have a nice day.  *
