 Q-Chem 4.4, Q-Chem, Inc., Pleasanton, CA (2016)
 Q-Chem 4.4.2 for Intel X86 Linux

User input:
--------------------------------------------------------------
$comment
SP
$end

$rem
MEM_STATIC 5000
MEM_TOTAL 20000
JOBTYPE SP
EXCHANGE B3LYP
BASIS 6-31g(d,p)
$end

$molecule
0 1
C           1.032000     14.113000     -5.145000
C           1.591000     14.373000     -6.355000
N           1.426000     14.759000     -4.002000
C           2.566000     15.417000     -6.437000
C           2.354000     15.714000     -4.001000
C           2.999000     16.093000     -5.256000
C           3.770000     17.369000     -5.344000
C           3.466000     18.288000     -6.376000
C           4.783000     17.726000     -4.473000
N           4.039000     19.573000     -6.398000
N           5.340000     16.887000     -3.607000
C           5.422000     18.934000     -4.557000
C           4.979000     19.928000     -5.442000
S           6.560000     17.661000     -2.843000
N           6.445000     19.036000     -3.664000
C           5.445000     21.307000     -5.612000
S           5.314000     22.187000     -7.117000
C           5.914000     22.148000     -4.607000
C           5.757000     23.693000     -6.408000
S           6.073000     21.945000     -2.817000
C           6.020000     23.505000     -5.053000
C           5.880000     24.954000     -7.059000
C           6.416000     23.627000     -2.769000
C           6.359000     24.344000     -3.966000
N           6.529000     25.963000     -6.483000
S           5.475000     25.186000     -8.705000
C           6.825000     26.906000     -7.405000
C           6.218000     26.728000     -8.615000
C          -0.156000     13.123000     -4.862000
H           1.307000     13.800000     -7.233000
H           2.993000     15.607000     -7.417000
H           2.609000     16.111000     -3.019000
H           2.748000     18.094000     -7.170000
H           6.659000     24.079000     -1.817000
H           6.586000     25.399000     -4.064000
H           7.486000     27.729000     -7.167000
H           6.293000     27.398000     -9.460000
H          -0.366000     12.542000     -5.769000
C          -1.453000     13.842000     -4.569000
H           0.111000     12.459000     -4.031000
H          -1.633000     14.481000     -5.442000
H          -1.327000     14.465000     -3.675000
C          -2.673000     12.944000     -4.403000
H          -2.776000     12.185000     -5.188000
C          -3.941000     13.882000     -4.317000
H          -2.756000     12.322000     -3.503000
H          -4.014000     14.392000     -5.286000
H          -3.876000     14.592000     -3.483000
C          -5.153000     13.021000     -4.231000
H          -5.251000     12.555000     -5.219000
C          -6.451000     13.767000     -3.891000
H          -4.971000     12.165000     -3.569000
H          -6.638000     14.594000     -4.586000
H          -6.241000     14.195000     -2.903000
H          -7.245000     13.010000     -3.855000
C          19.400000     19.938000     -9.932000
C          18.179000     19.285000     -9.559000
N          19.316000     20.995000    -10.757000
C          16.931000     19.600000    -10.204000
C          18.113000     21.386000    -11.233000
C          16.881000     20.705000    -11.082000
C          15.613000     21.466000    -11.575000
C          15.673000     22.138000    -12.799000
C          14.409000     21.461000    -10.853000
N          14.584000     22.802000    -13.229000
N          14.155000     20.809000     -9.707000
C          13.355000     22.202000    -11.330000
C          13.418000     22.881000    -12.528000
S          12.660000     21.231000     -9.346000
N          12.252000     22.204000    -10.529000
C          12.245000     23.732000    -12.964000
S          10.849000     24.421000    -11.999000
C          12.230000     24.402000    -14.168000
C          10.394000     25.578000    -13.189000
S          13.401000     24.204000    -15.492000
C          11.271000     25.399000    -14.224000
C           9.155000     26.297000    -13.196000
C          12.382000     25.399000    -16.301000
C          11.360000     26.018000    -15.505000
N           8.729000     26.887000    -14.304000
S           8.088000     26.137000    -11.861000
C           7.421000     27.118000    -14.104000
C           6.883000     26.746000    -12.910000
C          20.831000     19.362000     -9.530000
H          18.322000     18.425000     -8.913000
H          16.014000     19.068000     -9.970000
H          18.119000     22.294000    -11.834000
H          16.590000     22.226000    -13.380000
H          12.726000     25.840000    -17.227000
H          10.793000     26.890000    -15.813000
H           6.944000     27.621000    -14.935000
H           5.832000     26.735000    -12.654000
H          21.538000     20.130000     -9.866000
C          21.237000     17.963000    -10.065000
H          20.874000     19.328000     -8.434000
H          20.380000     17.287000     -9.957000
H          21.997000     17.607000     -9.359000
C          21.722000     18.004000    -11.549000
H          22.664000     18.551000    -11.682000
C          20.672000     18.498000    -12.562000
H          21.961000     16.987000    -11.883000
H          20.685000     19.589000    -12.449000
H          19.672000     18.160000    -12.265000
C          20.978000     18.102000    -14.053000
H          22.039000     18.273000    -14.273000
C          20.026000     18.867000    -15.047000
H          20.977000     17.015000    -14.197000
H          20.130000     19.946000    -14.879000
H          18.982000     18.542000    -14.960000
H          20.378000     18.607000    -16.053000
$end

--------------------------------------------------------------

             Standard Nuclear Orientation (Angstroms)
    I     Atom           X                Y                Z
 ----------------------------------------------------------------
    1      C     -10.2114566860    -3.4270751866    -2.1516158197
    2      C      -9.1326128784    -3.0999940882    -2.9087782818
    3      N     -10.1893798798    -3.3712600240    -0.7821640016
    4      C      -7.9670434973    -2.6042425728    -2.2432232859
    5      C      -9.1254838165    -2.9550925701    -0.0979565645
    6      C      -7.9196938101    -2.5504603675    -0.8170074953
    7      C      -6.8595299261    -1.7664522039    -0.1157623609
    8      C      -6.4071648644    -0.5539462477    -0.6877729877
    9      C      -6.2728273588    -2.1473164745     1.0771255236
   10      N      -5.5422304628     0.3043604629     0.0159571249
   11      N      -6.4140484862    -3.3531298662     1.6158245652
   12      C      -5.3464655665    -1.3656491794     1.7139073304
   13      C      -5.0554732020    -0.0710054155     1.2592305568
   14      S      -5.4851509338    -3.4359996701     2.9580070910
   15      N      -4.8334918484    -1.9752801260     2.8182578515
   16      C      -4.1905584146     0.9562218303     1.8461066904
   17      S      -3.3953992259     2.1959163300     0.9040528640
   18      C      -3.9887172103     1.1859454122     3.2039557999
   19      C      -2.8971744411     3.0904174064     2.2891903619
   20      S      -4.6912974721     0.4318769814     4.6900082140
   21      C      -3.3170394789     2.4286563211     3.4408516038
   22      C      -2.1489627605     4.3022688379     2.3146145430
   23      C      -3.9400757398     1.7090975271     5.5580235287
   24      C      -3.2624922312     2.6893404834     4.8299086096
   25      N      -1.5585430479     4.7206745509     3.4314848230
   26      S      -1.7108947668     5.1461657428     0.8922575391
   27      C      -0.6351235024     5.6632695765     3.1386368063
   28      C      -0.6764338854     6.1189411258     1.8522115689
   29      C     -11.6310963113    -3.8421510043    -2.6844088374
   30      H      -9.1555284166    -3.2166015366    -3.9884757307
   31      H      -7.1211094580    -2.3458269512    -2.8728628398
   32      H      -9.2228267866    -3.0062740909     0.9859543166
   33      H      -6.7291667019    -0.1829838585    -1.6584931958
   34      H      -4.0189074390     1.7187270968     6.6366104907
   35      H      -2.7253239438     3.5219571695     5.2684946162
   36      H       0.0599017525     6.0140011393     3.8901827236
   37      H      -0.0530410239     6.9013583076     1.4426328906
   38      H     -11.5804792559    -3.9892542443    -3.7707368498
   39      C     -12.6610900152    -2.7509334683    -2.5017171327
   40      H     -11.9547350807    -4.7630593112    -2.1844770047
   41      H     -12.2519982819    -1.8769598131    -3.0229311039
   42      H     -12.7657738822    -2.5279219947    -1.4328166833
   43      C     -14.0308135331    -3.0400370561    -3.1039102910
   44      H     -13.9927799910    -3.4204919788    -4.1318803788
   45      C     -14.8833853041    -1.7147949710    -2.9947370748
   46      H     -14.6713362005    -3.7936600472    -2.6289828230
   47      H     -14.3778628466    -0.9699256605    -3.6224366489
   48      H     -14.9891855996    -1.3738671854    -1.9572133197
   49      C     -16.2008545146    -1.9528251383    -3.6468701278
   50      H     -15.9865406867    -2.0267300717    -4.7199552335
   51      C     -17.2444994142    -0.8515139509    -3.4126928614
   52      H     -16.5780846651    -2.9529871964    -3.3989240224
   53      H     -16.8654139117     0.1354307315    -3.7027917680
   54      H     -17.3740368419    -0.8584648348    -2.3233812714
   55      H     -18.1537134900    -1.1667068094    -3.9406741359
   56      C       9.2151885216    -5.0036911962     1.6364121548
   57      C       7.8241808508    -5.1419395813     1.3164683413
   58      N       9.8044266034    -3.8272681453     1.3648292237
   59      C       7.1298530980    -4.1493327933     0.5383971774
   60      C       9.0964861341    -2.8373828415     0.7769403079
   61      C       7.7849024679    -2.9313679027     0.2522488799
   62      C       7.1343354617    -1.5920182441    -0.2091609841
   63      C       7.9107407583    -0.6930587895    -0.9456572259
   64      C       5.7903475882    -1.2830003532     0.0537639843
   65      N       7.3578600873     0.4680259467    -1.3430514874
   66      N       4.8880473023    -2.0588073618     0.6757878420
   67      C       5.3097805523    -0.0577104534    -0.3402486874
   68      C       6.0794054752     0.8385093251    -1.0506581374
   69      S       3.5747445698    -1.1556554223     0.7304001742
   70      N       4.0195592400     0.1911125768     0.0225598915
   71      C       5.5107297704     2.1975529172    -1.3968292764
   72      S       4.0946803174     3.1137134071    -0.6825352868
   73      C       6.2138229957     3.1214576217    -2.1389889718
   74      C       4.5548651413     4.6401882380    -1.3305156249
   75      S       7.7342643634     2.8251239280    -3.0129829015
   76      C       5.7037491955     4.4043916860    -2.0353988891
   77      C       3.7051839830     5.7921398257    -1.3869112700
   78      C       7.5577150558     4.5186356870    -3.4838494050
   79      C       6.5146574959     5.2617862877    -2.8349895501
   80      N       3.9927809163     6.7975669206    -2.2015549718
   81      S       2.1666965080     5.7341562866    -0.6279592304
   82      C       2.8548699618     7.5026225527    -2.3123711050
   83      C       1.7690093202     7.0752316347    -1.6111524014
   84      C      10.0972967281    -6.2291109447     2.1476582324
   85      H       7.4194954448    -6.1241147026     1.5376622682
   86      H       6.0934367462    -4.2755457202     0.2407725100
   87      H       9.6224210653    -1.8913247744     0.6583334710
   88      H       8.9719152913    -0.8474938919    -1.1360578817
   89      H       8.3807867213     5.0121784216    -3.9831104615
   90      H       6.4134549192     6.3406162000    -2.8861858290
   91      H       2.9533636046     8.3764385513    -2.9431195517
   92      H       0.7570957384     7.4463024252    -1.7038636270
   93      H      11.0661825146    -5.7811828391     2.3990339374
   94      C      10.2784291112    -7.4482943150     1.2047664202
   95      H       9.6464487041    -6.5901073760     3.0807384197
   96      H       9.3071284149    -7.6875796153     0.7548703183
   97      H      10.5179063301    -8.2827688599     1.8748969265
   98      C      11.3511574260    -7.1982949580     0.0975553816
   99      H      12.3691525462    -7.0989164802     0.4951378930
  100      C      11.0373119009    -6.0328049805    -0.8594394453
  101      H      11.4109637072    -8.0760448686    -0.5573830148
  102      H      11.3100663886    -5.1373394951    -0.2876304266
  103      H       9.9578645677    -5.9752291404    -1.0436444330
  104      C      11.8357517692    -6.0774044407    -2.2137059128
  105      H      12.8861040489    -6.3261993464    -2.0181984106
  106      C      11.6745102473    -4.7278002519    -3.0087749068
  107      H      11.5878969914    -6.9657647756    -2.8067404181
  108      H      11.9975443708    -3.8976065152    -2.3686902917
  109      H      10.6527698454    -4.5800704414    -3.3793858270
  110      H      12.3395121741    -4.8145656281    -3.8769823744
 ----------------------------------------------------------------

    9   -5663.4940423400      6.34E-06 Convergence criterion met
 Total energy in the final basis set = -5663.4940423400

                    Orbital Energies (a.u.)
 --------------------------------------------------------------

 Alpha MOs
 -- Occupied --
-88.995 -88.995 -88.930 -88.928 -88.926 -88.920 -88.915 -88.910
-14.389 -14.385 -14.382 -14.375 -14.354 -14.352 -14.342 -14.340
-14.330 -14.327 -10.267 -10.267 -10.266 -10.265 -10.256 -10.255
-10.250 -10.249 -10.246 -10.245 -10.244 -10.243 -10.237 -10.237
-10.235 -10.235 -10.233 -10.231 -10.229 -10.228 -10.228 -10.226
-10.225 -10.225 -10.225 -10.225 -10.224 -10.222 -10.220 -10.219
-10.218 -10.217 -10.208 -10.205 -10.202 -10.201 -10.194 -10.193
-10.193 -10.190 -10.184 -10.179 -10.178 -10.177 -10.176 -10.173
-10.173 -10.172 -10.170 -10.169  -8.051  -8.050  -7.992  -7.990
 -7.986  -7.979  -7.975  -7.969  -6.016  -6.016  -6.010  -6.010
 -6.009  -6.008  -5.956  -5.954  -5.953  -5.951  -5.950  -5.949
 -5.947  -5.947  -5.944  -5.943  -5.940  -5.940  -5.936  -5.936
 -5.933  -5.931  -5.930  -5.925  -1.061  -1.046  -0.984  -0.978
 -0.958  -0.943  -0.934  -0.933  -0.920  -0.911  -0.910  -0.901
 -0.850  -0.839  -0.830  -0.830  -0.822  -0.815  -0.814  -0.812
 -0.809  -0.799  -0.797  -0.792  -0.789  -0.774  -0.770  -0.765
 -0.752  -0.747  -0.742  -0.738  -0.726  -0.719  -0.708  -0.703
 -0.694  -0.689  -0.677  -0.675  -0.654  -0.653  -0.651  -0.647
 -0.637  -0.635  -0.628  -0.626  -0.611  -0.611  -0.598  -0.596
 -0.594  -0.590  -0.582  -0.580  -0.577  -0.576  -0.568  -0.564
 -0.557  -0.554  -0.540  -0.539  -0.529  -0.524  -0.521  -0.515
 -0.506  -0.504  -0.501  -0.496  -0.487  -0.487  -0.483  -0.479
 -0.477  -0.473  -0.472  -0.469  -0.465  -0.452  -0.451  -0.447
 -0.446  -0.445  -0.441  -0.440  -0.435  -0.433  -0.431  -0.429
 -0.428  -0.426  -0.424  -0.420  -0.417  -0.414  -0.413  -0.413
 -0.412  -0.409  -0.409  -0.405  -0.401  -0.399  -0.396  -0.396
 -0.393  -0.391  -0.391  -0.389  -0.387  -0.387  -0.386  -0.383
 -0.379  -0.377  -0.375  -0.374  -0.365  -0.363  -0.363  -0.361
 -0.359  -0.353  -0.352  -0.349  -0.349  -0.347  -0.345  -0.342
 -0.338  -0.333  -0.333  -0.332  -0.331  -0.328  -0.321  -0.319
 -0.317  -0.314  -0.311  -0.306  -0.303  -0.301  -0.301  -0.300
 -0.298  -0.298  -0.297  -0.294  -0.293  -0.284  -0.281  -0.280
 -0.279  -0.269  -0.267  -0.265  -0.255  -0.253  -0.251  -0.249
 -0.245  -0.241  -0.231  -0.227  -0.192  -0.191

          Ground-State Mulliken Net Atomic Charges

     Atom                 Charge (a.u.)
  ----------------------------------------
      1 C                     0.260929
      2 C                    -0.118866
      3 N                    -0.469612
      4 C                    -0.098878
      5 C                     0.104034
      6 C                     0.018354
      7 C                     0.025973
      8 C                     0.062412
      9 C                     0.248845
     10 N                    -0.527870
     11 N                    -0.559641
     12 C                     0.210305
     13 C                     0.281908
     14 S                     0.615492
     15 N                    -0.555841
     16 C                    -0.231765
     17 S                     0.329211
     18 C                    -0.115409
     19 C                    -0.212671
     20 S                     0.288581
     21 C                     0.137094
     22 C                     0.062645
     23 C                    -0.308586
     24 C                    -0.057781
     25 N                    -0.437710
     26 S                     0.271266
     27 C                     0.128784
     28 C                    -0.316467
     29 C                    -0.209809
     30 H                     0.093731
     31 H                     0.104592
     32 H                     0.118754
     33 H                     0.121637
     34 H                     0.126069
     35 H                     0.127296
     36 H                     0.116036
     37 H                     0.131357
     38 H                     0.083110
     39 C                    -0.161623
     40 H                     0.114739
     41 H                     0.089302
     42 H                     0.115236
     43 C                    -0.186878
     44 H                     0.087516
     45 C                    -0.163927
     46 H                     0.093398
     47 H                     0.092468
     48 H                     0.091832
     49 C                    -0.180683
     50 H                     0.087362
     51 C                    -0.313160
     52 H                     0.085377
     53 H                     0.103549
     54 H                     0.101921
     55 H                     0.101727
     56 C                     0.265263
     57 C                    -0.126034
     58 N                    -0.471060
     59 C                    -0.083662
     60 C                     0.066682
     61 C                     0.046714
     62 C                     0.003408
     63 C                     0.078661
     64 C                     0.265857
     65 N                    -0.550866
     66 N                    -0.549873
     67 C                     0.165761
     68 C                     0.311863
     69 S                     0.619175
     70 N                    -0.532411
     71 C                    -0.225574
     72 S                     0.303867
     73 C                    -0.103711
     74 C                    -0.226550
     75 S                     0.298414
     76 C                     0.150930
     77 C                     0.070823
     78 C                    -0.305377
     79 C                    -0.082057
     80 N                    -0.425289
     81 S                     0.288141
     82 C                     0.129828
     83 C                    -0.323889
     84 C                    -0.230747
     85 H                     0.086029
     86 H                     0.118719
     87 H                     0.096243
     88 H                     0.130129
     89 H                     0.115713
     90 H                     0.122488
     91 H                     0.106853
     92 H                     0.132521
     93 H                     0.120959
     94 C                    -0.180708
     95 H                     0.104591
     96 H                     0.097079
     97 H                     0.097763
     98 C                    -0.182072
     99 H                     0.094081
    100 C                    -0.174059
    101 H                     0.084719
    102 H                     0.117548
    103 H                     0.090683
    104 C                    -0.191601
    105 H                     0.090512
    106 C                    -0.316732
    107 H                     0.089124
    108 H                     0.110223
    109 H                     0.106619
    110 H                     0.098624
  ----------------------------------------
  Sum of atomic charges =     0.000000

                    Cartesian Multipole Moments
 -----------------------------------------------------------------
    Charge (ESU x 10^10)
                 0.0000
    Dipole Moment (Debye)
         X      -1.4975      Y      -0.8127      Z      -0.2317
       Tot       1.7195
    Quadrupole Moments (Debye-Ang)
        XX    -474.5694     XY      -7.1618     YY    -414.8800
        XZ      10.3546     YZ      -2.2822     ZZ    -430.0902

 Total job time:  84.54s(wall), 903.86s(cpu)
        *  Thank you very much for using Q-Chem.  Have a nice day.  *
