 Q-Chem 4.4, Q-Chem, Inc., Pleasanton, CA (2016)
 Q-Chem 4.4.2 for Intel X86 Linux

User input:
--------------------------------------------------------------
$comment
SP
$end

$rem
MEM_STATIC 5000
MEM_TOTAL 20000
JOBTYPE SP
EXCHANGE B3LYP
BASIS 6-31g(d,p)
$end

$molecule
0 1
C          16.004000     16.436000    -13.916000
C          15.775000     17.800000    -13.611000
N          14.940000     15.608000    -14.176000
C          14.443000     18.302000    -13.540000
C          13.702000     16.096000    -14.072000
C          13.342000     17.387000    -13.674000
C          11.985000     17.686000    -13.227000
C          11.812000     18.640000    -12.212000
C          10.806000     17.167000    -13.746000
N          10.652000     19.075000    -11.710000
N          10.720000     16.282000    -14.767000
C           9.554000     17.624000    -13.259000
C           9.527000     18.553000    -12.238000
S           9.144000     16.168000    -15.037000
N           8.441000     17.064000    -13.866000
C           8.220000     19.003000    -11.658000
S           6.727000     18.041000    -11.364000
C           8.048000     20.260000    -11.165000
C           5.919000     19.486000    -10.740000
S           9.076000     21.676000    -11.274000
C           6.817000     20.539000    -10.709000
C           4.556000     19.587000    -10.276000
C           7.815000     22.608000    -10.462000
C           6.727000     21.827000    -10.209000
N           3.997000     20.734000    -10.002000
S           3.580000     18.174000     -9.980000
C           2.680000     20.487000     -9.710000
C           2.224000     19.176000     -9.598000
C          17.344000     15.835000    -14.200000
H          16.584000     18.513000    -13.482000
H          14.300000     19.359000    -13.339000
H          12.973000     15.310000    -14.267000
H          12.697000     19.137000    -11.817000
H           7.874000     23.688000    -10.440000
H           5.837000     22.316000     -9.828000
H           2.133000     21.378000     -9.431000
H           1.302000     18.843000     -9.138000
H          17.324000     15.308000    -15.161000
C          17.690000     14.872000    -13.040000
H          18.136000     16.594000    -14.212000
H          18.618000     14.309000    -13.203000
H          16.947000     14.083000    -12.869000
C          17.893000     15.566000    -11.658000
H          18.825000     16.141000    -11.727000
C          18.137000     14.411000    -10.600000
H          17.076000     16.243000    -11.377000
H          19.012000     13.794000    -10.836000
H          17.196000     13.852000    -10.518000
C          18.304000     14.950000     -9.192000
H          19.321000     15.361000     -9.163000
C          18.209000     13.752000     -8.186000
H          17.514000     15.685000     -8.996000
H          18.073000     14.096000     -7.153000
H          19.057000     13.067000     -8.063000
H          17.337000     13.134000     -8.433000
C          19.400000     19.938000     -9.932000
C          18.179000     19.285000     -9.559000
N          19.316000     20.995000    -10.757000
C          16.931000     19.600000    -10.204000
C          18.113000     21.386000    -11.233000
C          16.881000     20.705000    -11.082000
C          15.613000     21.466000    -11.575000
C          15.673000     22.138000    -12.799000
C          14.409000     21.461000    -10.853000
N          14.584000     22.802000    -13.229000
N          14.155000     20.809000     -9.707000
C          13.355000     22.202000    -11.330000
C          13.418000     22.881000    -12.528000
S          12.660000     21.231000     -9.346000
N          12.252000     22.204000    -10.529000
C          12.245000     23.732000    -12.964000
S          10.849000     24.421000    -11.999000
C          12.230000     24.402000    -14.168000
C          10.394000     25.578000    -13.189000
S          13.401000     24.204000    -15.492000
C          11.271000     25.399000    -14.224000
C           9.155000     26.297000    -13.196000
C          12.382000     25.399000    -16.301000
C          11.360000     26.018000    -15.505000
N           8.729000     26.887000    -14.304000
S           8.088000     26.137000    -11.861000
C           7.421000     27.118000    -14.104000
C           6.883000     26.746000    -12.910000
C          20.831000     19.362000     -9.530000
H          18.322000     18.425000     -8.913000
H          16.014000     19.068000     -9.970000
H          18.119000     22.294000    -11.834000
H          16.590000     22.226000    -13.380000
H          12.726000     25.840000    -17.227000
H          10.793000     26.890000    -15.813000
H           6.944000     27.621000    -14.935000
H           5.832000     26.735000    -12.654000
H          21.538000     20.130000     -9.866000
C          21.237000     17.963000    -10.065000
H          20.874000     19.328000     -8.434000
H          20.380000     17.287000     -9.957000
H          21.997000     17.607000     -9.359000
C          21.722000     18.004000    -11.549000
H          22.664000     18.551000    -11.682000
C          20.672000     18.498000    -12.562000
H          21.961000     16.987000    -11.883000
H          20.685000     19.589000    -12.449000
H          19.672000     18.160000    -12.265000
C          20.978000     18.102000    -14.053000
H          22.039000     18.273000    -14.273000
C          20.026000     18.867000    -15.047000
H          20.977000     17.015000    -14.197000
H          20.130000     19.946000    -14.879000
H          18.982000     18.542000    -14.960000
H          20.378000     18.607000    -16.053000
$end

--------------------------------------------------------------

             Standard Nuclear Orientation (Angstroms)
    I     Atom           X                Y                Z
 ----------------------------------------------------------------
    1      C       4.6589409141    -1.9783044955    -2.2387764814
    2      C       3.9894743045    -0.8501321043    -1.7049192772
    3      N       3.9307268322    -3.0403096508    -2.7153573255
    4      C       2.5662712086    -0.8331811293    -1.6309286553
    5      C       2.6007964750    -3.0121239468    -2.6053809138
    6      C       1.8319061338    -2.0122440961    -2.0022781635
    7      C       0.4521019911    -2.2644084823    -1.5982823095
    8      C      -0.0292066137    -1.6354819286    -0.4393761800
    9      C      -0.4869140544    -3.0275664018    -2.2798993986
   10      N      -1.2684416178    -1.7083617250     0.0564202902
   11      N      -0.2728112231    -3.6758171654    -3.4490841253
   12      C      -1.8202146217    -3.1071291114    -1.8008363832
   13      C      -2.1555167215    -2.4549612572    -0.6310241796
   14      S      -1.7211193024    -4.2419491121    -3.8384044640
   15      N      -2.6832525876    -3.8696134359    -2.5719402182
   16      C      -3.5384811269    -2.5770015064    -0.0656352596
   17      S      -4.6274903517    -4.0104550804    -0.0515370465
   18      C      -4.1188679305    -1.5658453026     0.6367864725
   19      C      -5.8703700241    -3.0579249441     0.7719928311
   20      S      -3.6194889851     0.1002806740     0.8567089567
   21      C      -5.3731943868    -1.7972379976     1.0542317524
   22      C      -7.1900811078    -3.4985540733     1.1560170829
   23      C      -5.1194598515     0.3940684885     1.7409403291
   24      C      -5.8865439604    -0.7320593544     1.7745862992
   25      N      -8.0986861102    -2.6725894231     1.5980412296
   26      S      -7.6416355968    -5.1813498172     1.1234897432
   27      C      -9.2592006331    -3.3867751909     1.7526592468
   28      C      -9.2539449205    -4.7700773154     1.5925074124
   29      C       6.1228336509    -2.0428168822    -2.5392980399
   30      H       4.5155288557     0.0479178470    -1.3946550445
   31      H       2.0800278379     0.0591672678    -1.2496404144
   32      H       2.1745283520    -3.9388300996    -2.9884908114
   33      H       0.6399628049    -0.9642897260     0.0972543413
   34      H      -5.4225980869     1.4082945943     1.9641389323
   35      H      -6.8889032348    -0.6435188679     2.1793312403
   36      H     -10.0714534299    -2.7947455553     2.1535049834
   37      H     -10.0135253717    -5.4678987938     1.9221370870
   38      H       6.2801933116    -2.3500012549    -3.5797429920
   39      C       6.7676784585    -3.0468490872    -1.5550320669
   40      H       6.6177434636    -1.0803106962    -2.3600353303
   41      H       7.8301980770    -3.2338945233    -1.7569926204
   42      H       6.3287594600    -4.0520889541    -1.5806039790
   43      C       6.7269427266    -2.6074545725    -0.0590233569
   44      H       7.4150935483    -1.7585235252     0.0398428335
   45      C       7.3394828830    -3.8025097918     0.7833320193
   46      H       5.7311078661    -2.3017393478     0.2868525340
   47      H       8.3700385206    -4.0425767901     0.4963948933
   48      H       6.6375124478    -4.6420959804     0.6995552921
   49      C       7.3162489285    -3.5233126596     2.2740979783
   50      H       8.1389329398    -2.8175130049     2.4446525593
   51      C       7.6233867448    -4.8584235629     3.0352879924
   52      H       6.3267167691    -3.1386045837     2.5489921432
   53      H       7.3795889070    -4.7853669731     4.1025959841
   54      H       8.6506303095    -5.2400382982     3.0862669335
   55      H       7.0064947231    -5.6661316493     2.6225303385
   56      C       6.6939596891     1.5927794936     2.5335535290
   57      C       5.7587633355     0.5184352511     2.6995993932
   58      N       6.2646062031     2.7039306891     1.9123220064
   59      C       4.4777745340     0.5289981603     2.0425528840
   60      C       5.0006115266     2.7665909981     1.4379201266
   61      C       4.0646094190     1.7059437419     1.3803575309
   62      C       2.6164175150     2.0930967508     0.9527516879
   63      C       2.4512607760     2.9725259351    -0.1208811923
   64      C       1.4815771569     1.5559724632     1.5808916892
   65      N       1.2040499140     3.3159576295    -0.4926832054
   66      N       1.4572011374     0.6470523303     2.5689230661
   67      C       0.2418572228     1.9911898654     1.1793866485
   68      C       0.0771733876     2.8730149440     0.1327359115
   69      S      -0.0935213531     0.4804909759     2.9020102510
   70      N      -0.8001394265     1.4780618224     1.8929387449
   71      C      -1.3113789534     3.3632878424    -0.2162352640
   72      S      -2.8581472650     3.3585123041     0.7647066223
   73      C      -1.5466364739     4.2125544183    -1.2755469188
   74      C      -3.6702101680     4.5123909583    -0.2206318440
   75      S      -0.3747605767     4.6682120927    -2.5335230574
   76      C      -2.7822998059     4.8336767825    -1.2109780501
   77      C      -5.0776845881     4.7755822116    -0.1773060893
   78      C      -1.7318792870     5.5994849789    -3.1752602447
   79      C      -2.9024285868     5.6845978669    -2.3483194166
   80      N      -5.6741438079     5.3983225328    -1.1841183317
   81      S      -6.0325569324     4.0204014335     1.0327496112
   82      C      -6.9848432494     5.1472446827    -1.0316326359
   83      C      -7.3701619577     4.3955875759     0.0360775714
   84      C       8.2345508574     1.4475802779     2.9164856897
   85      H       6.1785420783    -0.3564042725     3.1851986262
   86      H       3.7892884304    -0.3073599051     2.1143934824
   87      H       4.7053721812     3.7256067697     1.0150448746
   88      H       3.2876570817     3.4655660933    -0.6143856220
   89      H      -1.5527887406     6.2996809240    -3.9802106870
   90      H      -3.7265244884     6.3667260771    -2.5280526908
   91      H      -7.6008409860     5.6189939838    -1.7860187342
   92      H      -8.3581342655     3.9933838773     0.2160800822
   93      H       8.6466895658     2.4537651684     2.7739983176
   94      C       9.0828707356     0.3894005283     2.1622503141
   95      H       8.2850784130     1.2169139693     3.9881484259
   96      H       8.4989645605    -0.5361484550     2.0880771503
   97      H       9.9171174806     0.1701330318     2.8395435545
   98      C       9.5285033973     0.8739493338     0.7459925742
   99      H      10.2354649344     1.7126790756     0.7776122750
  100      C       8.3752542950     1.1861968125    -0.2262332329
  101      H      10.0921685474     0.0757441699     0.2478800218
  102      H       8.0249642028     2.1779199186     0.0852168146
  103      H       7.5439612082     0.4900596705    -0.0625326424
  104      C       8.7972257033     1.2094775234    -1.7411362460
  105      H       9.7414368128     1.7559778110    -1.8558742799
  106      C       7.6463660196     1.8006883476    -2.6386643792
  107      H       9.1575430820     0.2313934670    -2.0814727930
  108      H       7.3858280590     2.8002401365    -2.2694798827
  109      H       6.7695070040     1.1431045513    -2.6814641171
  110      H       8.0659615800     1.8704358648    -3.6499085878
 ----------------------------------------------------------------

   10   -5663.4898425006      6.30E-06 Convergence criterion met
 Total energy in the final basis set = -5663.4898425006

                    Orbital Energies (a.u.)
 --------------------------------------------------------------

 Alpha MOs
 -- Occupied --
-88.994 -88.992 -88.932 -88.928 -88.923 -88.921 -88.912 -88.897
-14.396 -14.388 -14.387 -14.385 -14.354 -14.353 -14.344 -14.340
-14.333 -14.327 -10.270 -10.268 -10.266 -10.261 -10.259 -10.257
-10.256 -10.249 -10.249 -10.246 -10.240 -10.239 -10.238 -10.237
-10.236 -10.234 -10.233 -10.231 -10.229 -10.227 -10.227 -10.227
-10.226 -10.224 -10.223 -10.222 -10.220 -10.220 -10.218 -10.217
-10.216 -10.215 -10.207 -10.205 -10.203 -10.196 -10.195 -10.194
-10.192 -10.187 -10.183 -10.183 -10.182 -10.180 -10.179 -10.179
-10.177 -10.177 -10.174 -10.173  -8.050  -8.048  -7.995  -7.986
 -7.983  -7.982  -7.970  -7.957  -6.015  -6.013  -6.009  -6.009
 -6.007  -6.006  -5.958  -5.955  -5.952  -5.951  -5.947  -5.947
 -5.947  -5.943  -5.943  -5.943  -5.940  -5.939  -5.935  -5.932
 -5.926  -5.921  -5.918  -5.913  -1.061  -1.045  -0.986  -0.975
 -0.966  -0.961  -0.937  -0.935  -0.921  -0.919  -0.913  -0.912
 -0.844  -0.841  -0.840  -0.832  -0.824  -0.816  -0.810  -0.810
 -0.806  -0.801  -0.794  -0.793  -0.786  -0.777  -0.768  -0.768
 -0.749  -0.746  -0.741  -0.737  -0.727  -0.721  -0.708  -0.706
 -0.691  -0.690  -0.677  -0.673  -0.658  -0.655  -0.653  -0.649
 -0.639  -0.638  -0.629  -0.623  -0.616  -0.613  -0.601  -0.597
 -0.595  -0.593  -0.585  -0.579  -0.577  -0.574  -0.572  -0.566
 -0.559  -0.549  -0.543  -0.541  -0.530  -0.524  -0.522  -0.512
 -0.510  -0.503  -0.500  -0.497  -0.489  -0.485  -0.485  -0.481
 -0.477  -0.475  -0.471  -0.469  -0.468  -0.455  -0.454  -0.448
 -0.448  -0.443  -0.442  -0.440  -0.436  -0.434  -0.432  -0.430
 -0.428  -0.426  -0.421  -0.419  -0.417  -0.416  -0.414  -0.414
 -0.413  -0.409  -0.405  -0.403  -0.401  -0.400  -0.398  -0.397
 -0.395  -0.393  -0.391  -0.390  -0.389  -0.386  -0.385  -0.381
 -0.379  -0.377  -0.374  -0.372  -0.365  -0.364  -0.364  -0.361
 -0.358  -0.357  -0.352  -0.351  -0.350  -0.348  -0.348  -0.342
 -0.338  -0.337  -0.335  -0.334  -0.332  -0.328  -0.325  -0.324
 -0.322  -0.320  -0.314  -0.309  -0.305  -0.304  -0.303  -0.302
 -0.301  -0.300  -0.298  -0.296  -0.292  -0.286  -0.283  -0.282
 -0.279  -0.269  -0.269  -0.267  -0.256  -0.254  -0.253  -0.248
 -0.246  -0.243  -0.230  -0.229  -0.193  -0.190

          Ground-State Mulliken Net Atomic Charges

     Atom                 Charge (a.u.)
  ----------------------------------------
      1 C                     0.275922
      2 C                    -0.139363
      3 N                    -0.477230
      4 C                    -0.098685
      5 C                     0.073984
      6 C                     0.042865
      7 C                     0.074005
      8 C                     0.051038
      9 C                     0.211240
     10 N                    -0.514723
     11 N                    -0.531360
     12 C                     0.199988
     13 C                     0.245386
     14 S                     0.619467
     15 N                    -0.537928
     16 C                    -0.222086
     17 S                     0.313149
     18 C                    -0.119271
     19 C                    -0.240452
     20 S                     0.303872
     21 C                     0.177832
     22 C                     0.071663
     23 C                    -0.307495
     24 C                    -0.064963
     25 N                    -0.429723
     26 S                     0.258689
     27 C                     0.106435
     28 C                    -0.307231
     29 C                    -0.229999
     30 H                     0.102032
     31 H                     0.107056
     32 H                     0.117960
     33 H                     0.091154
     34 H                     0.128465
     35 H                     0.121927
     36 H                     0.100953
     37 H                     0.142312
     38 H                     0.122761
     39 C                    -0.181639
     40 H                     0.110756
     41 H                     0.086916
     42 H                     0.114954
     43 C                    -0.201441
     44 H                     0.104159
     45 C                    -0.169412
     46 H                     0.094885
     47 H                     0.095269
     48 H                     0.095027
     49 C                    -0.182350
     50 H                     0.098240
     51 C                    -0.330085
     52 H                     0.095781
     53 H                     0.095974
     54 H                     0.104650
     55 H                     0.102590
     56 C                     0.264133
     57 C                    -0.128238
     58 N                    -0.470938
     59 C                    -0.084159
     60 C                     0.065705
     61 C                     0.040442
     62 C                     0.001402
     63 C                     0.067967
     64 C                     0.258501
     65 N                    -0.552165
     66 N                    -0.563436
     67 C                     0.171751
     68 C                     0.311350
     69 S                     0.650550
     70 N                    -0.530355
     71 C                    -0.218334
     72 S                     0.304249
     73 C                    -0.105571
     74 C                    -0.222883
     75 S                     0.299244
     76 C                     0.150270
     77 C                     0.077540
     78 C                    -0.304338
     79 C                    -0.081786
     80 N                    -0.423844
     81 S                     0.277420
     82 C                     0.130396
     83 C                    -0.313420
     84 C                    -0.230741
     85 H                     0.093317
     86 H                     0.121665
     87 H                     0.097019
     88 H                     0.130131
     89 H                     0.116686
     90 H                     0.123531
     91 H                     0.108559
     92 H                     0.136433
     93 H                     0.121139
     94 C                    -0.193955
     95 H                     0.106281
     96 H                     0.110169
     97 H                     0.098139
     98 C                    -0.181059
     99 H                     0.095287
    100 C                    -0.184306
    101 H                     0.084422
    102 H                     0.117913
    103 H                     0.095963
    104 C                    -0.191738
    105 H                     0.091938
    106 C                    -0.324052
    107 H                     0.090776
    108 H                     0.111255
    109 H                     0.107522
    110 H                     0.102329
  ----------------------------------------
  Sum of atomic charges =     0.000000

                    Cartesian Multipole Moments
 -----------------------------------------------------------------
    Charge (ESU x 10^10)
                 0.0000
    Dipole Moment (Debye)
         X      -1.6076      Y      -0.8285      Z       1.6460
       Tot       2.4454
    Quadrupole Moments (Debye-Ang)
        XX    -395.2601     XY      -0.3801     YY    -445.6790
        XZ      -2.8279     YZ      -8.5778     ZZ    -444.7048

 Total job time:  109.97s(wall), 1247.48s(cpu)
        *  Thank you very much for using Q-Chem.  Have a nice day.  *
