 Q-Chem 4.4, Q-Chem, Inc., Pleasanton, CA (2016)
 Q-Chem 4.4.2 for Intel X86 Linux

User input:
--------------------------------------------------------------
$comment
SP
$end

$rem
MEM_STATIC 5000
MEM_TOTAL 20000
JOBTYPE SP
EXCHANGE B3LYP
BASIS 6-31g(d,p)
$end

$molecule
0 1
C         -10.681000      9.504000     -0.146000
C          -9.752000     10.215000     -0.925000
N         -10.291000      8.507000      0.643000
C          -8.416000      9.732000     -0.884000
C          -9.013000      8.162000      0.731000
C          -7.946000      8.677000     -0.044000
C          -6.493000      8.272000     -0.059000
C          -5.486000      9.047000     -0.800000
C          -5.982000      7.068000      0.493000
N          -4.221000      8.691000     -0.830000
N          -6.772000      6.207000      1.159000
C          -4.609000      6.681000      0.390000
C          -3.711000      7.574000     -0.251000
S          -5.753000      5.006000      1.669000
N          -4.305000      5.553000      1.090000
C          -2.301000      7.446000     -0.214000
S          -1.174000      8.794000      0.044000
C          -1.595000      6.299000     -0.370000
C           0.267000      7.760000     -0.225000
S          -2.141000      4.686000     -0.842000
C          -0.203000      6.476000     -0.468000
C           1.613000      8.213000     -0.343000
C          -0.506000      4.265000     -1.008000
C           0.447000      5.240000     -0.737000
N           1.922000      9.362000      0.202000
S           2.948000      7.191000     -0.953000
C           3.271000      9.630000     -0.086000
C           3.984000      8.562000     -0.673000
C         -12.139000      9.930000     -0.071000
H         -10.062000     11.078000     -1.507000
H          -7.761000     10.257000     -1.574000
H          -8.769000      7.311000      1.365000
H          -5.675000      9.950000     -1.378000
H          -0.368000      3.247000     -1.349000
H           1.499000      5.028000     -0.885000
H           3.692000     10.600000      0.140000
H           5.009000      8.530000     -1.017000
H         -12.110000     10.958000      0.312000
C         -13.114000      9.107000      0.806000
H         -12.536000     10.003000     -1.091000
H         -12.557000      8.821000      1.706000
H         -13.347000      8.191000      0.250000
C         -14.473000      9.895000      1.065000
H         -14.283000     10.901000      1.459000
C         -15.477000      9.036000      1.870000
H         -14.965000     10.119000      0.110000
H         -15.116000      8.787000      2.875000
H         -15.504000      8.100000      1.298000
C         -16.789000      9.676000      1.798000
H         -16.892000     10.571000      2.423000
C         -17.947000      8.834000      2.275000
H         -17.035000      9.994000      0.777000
H         -17.982000      7.789000      1.943000
H         -18.784000      9.345000      1.783000
H         -18.020000      8.903000      3.368000
C           3.072000     -0.686000     -3.913000
C           2.740000      0.285000     -2.952000
N           2.433000     -0.690000     -5.047000
C           1.816000      1.318000     -3.234000
C           1.503000      0.250000     -5.319000
C           1.131000      1.296000     -4.430000
C           0.154000      2.393000     -4.730000
C           0.384000      3.728000     -4.414000
C          -1.101000      2.150000     -5.258000
N          -0.470000      4.736000     -4.524000
N          -1.548000      0.915000     -5.583000
C          -2.017000      3.154000     -5.482000
C          -1.672000      4.489000     -5.042000
S          -2.935000      1.115000     -6.363000
N          -3.157000      2.694000     -6.074000
C          -2.505000      5.606000     -5.481000
S          -4.029000      5.515000     -6.390000
C          -2.102000      6.960000     -5.327000
C          -4.263000      7.280000     -6.181000
S          -0.676000      7.728000     -4.592000
C          -3.117000      7.808000     -5.638000
C          -5.507000      8.042000     -6.270000
C          -1.457000      9.307000     -4.818000
C          -2.738000      9.177000     -5.340000
N          -6.600000      7.391000     -5.928000
S          -5.573000      9.780000     -6.608000
C          -7.681000      8.301000     -5.827000
C          -7.291000      9.554000     -6.290000
C           4.015000     -1.843000     -3.656000
H           3.327000      0.388000     -2.044000
H           1.867000      2.237000     -2.658000
H           1.136000      0.181000     -6.342000
H           1.305000      3.908000     -3.862000
H          -0.943000     10.253000     -4.706000
H          -3.276000     10.091000     -5.565000
H          -8.705000      7.997000     -5.654000
H          -7.953000     10.407000     -6.352000
H           4.343000     -1.797000     -2.610000
C           5.320000     -1.820000     -4.541000
H           3.506000     -2.806000     -3.791000
H           5.899000     -0.931000     -4.262000
H           4.944000     -1.755000     -5.569000
C           6.224000     -3.037000     -4.269000
H           7.238000     -2.732000     -4.555000
C           5.871000     -4.293000     -5.095000
H           6.350000     -3.312000     -3.215000
H           5.991000     -3.953000     -6.131000
H           4.857000     -4.668000     -4.911000
C           6.806000     -5.511000     -4.832000
H           7.855000     -5.303000     -5.073000
C           6.441000     -6.793000     -5.671000
H           6.847000     -5.680000     -3.749000
H           7.166000     -7.600000     -5.507000
H           6.336000     -6.401000     -6.690000
H           5.439000     -7.148000     -5.401000
$end

--------------------------------------------------------------

             Standard Nuclear Orientation (Angstroms)
    I     Atom           X                Y                Z
 ----------------------------------------------------------------
    1      C      -8.9353443510    -0.6803461023     0.6235812179
    2      C      -8.3736054083     0.0937787226    -0.4062649434
    3      N      -8.2731121319    -0.8951082662     1.7566989086
    4      C      -7.0384949916     0.5305330038    -0.1904134369
    5      C      -7.0694783601    -0.3742174861     1.9566777539
    6      C      -6.2922409110     0.3383427953     1.0119562113
    7      C      -4.8901076497     0.8794642546     1.1410642427
    8      C      -4.3076766450     1.7592843854     0.1161517282
    9      C      -3.9640145906     0.4977244949     2.1470798498
   10      N      -3.0811938116     2.2217563899     0.2147443465
   11      N      -4.3064826474    -0.3463232674     3.1366636032
   12      C      -2.6160215309     0.9736530877     2.1908255433
   13      C      -2.2083992567     1.9127143388     1.2075951287
   14      S      -2.9583086132    -0.4467362700     4.0922817290
   15      N      -1.9335141423     0.5811558286     3.3020993917
   16      C      -1.0004550507     2.6498876115     1.2650351948
   17      S      -0.8580210733     4.3801357485     0.8912024161
   18      C       0.2198630931     2.1655764861     1.6036313578
   19      C       0.9275411543     4.3631622248     1.0628923426
   20      S       0.7414331745     0.5009680645     1.8859652967
   21      C       1.2828687920     3.0657942633     1.4081221827
   22      C       1.8112865784     5.4308117960     0.7312789857
   23      C       2.3356472668     1.0810420792     1.8817742180
   24      C       2.5312279797     2.4430569798     1.6844455698
   25      N       1.3257951516     6.6460824171     0.7202158925
   26      S       3.5838926579     5.2373057821     0.5925991035
   27      C       2.3499240810     7.5187574426     0.3150403308
   28      C       3.6348408264     6.9395884489     0.2306944109
   29      C     -10.3667300200    -1.1872514527     0.5396346140
   30      H      -8.9479762684     0.3323300880    -1.2966493329
   31      H      -6.6220880936     1.0425025060    -1.0536877411
   32      H      -6.5674069543    -0.6233747919     2.8902397179
   33      H      -4.8056357378     2.0985916272    -0.7905573417
   34      H       3.0680560170     0.2944817755     2.0104183442
   35      H       3.5353739960     2.8442864650     1.6191946847
   36      H       2.1252841303     8.5524778973     0.0910405228
   37      H       4.5673187885     7.3852974230    -0.0883876486
   38      H     -10.9782214071    -0.2813614841     0.4408639278
   39      C     -10.9294326584    -2.0341470891     1.7072032508
   40      H     -10.4902932256    -1.7345478194    -0.4029876970
   41      H     -10.5344211942    -1.5931076164     2.6299681866
   42      H     -10.5030992817    -3.0393864950     1.6061360015
   43      C     -12.5153092477    -2.1527531794     1.6308223697
   44      H     -12.9865384320    -1.1656158724     1.5479067925
   45      C     -13.0656909685    -3.0688702233     2.7496304512
   46      H     -12.8116008010    -2.6213330445     0.6837694538
   47      H     -12.8745493893    -2.6762842849     3.7554575624
   48      H     -12.4571811354    -3.9751320217     2.6382108139
   49      C     -14.4573127967    -3.3884377493     2.4375514811
   50      H     -15.1623690192    -2.5681733884     2.6173321849
   51      C     -15.0654487246    -4.5005343924     3.2566172596
   52      H     -14.5876415725    -3.6698525751     1.3849826681
   53      H     -14.4617537878    -5.4037793955     3.4088502644
   54      H     -15.9034043240    -4.7914964769     2.6109195912
   55      H     -15.4172075461    -4.0954996203     4.2141931390
   56      C       8.5573744843    -1.5125803003     1.3189746236
   57      C       7.5468334276    -0.6475371585     1.7740494917
   58      N       8.3041910561    -2.2977012469     0.3121100593
   59      C       6.3118710948    -0.5318190532     1.0944419898
   60      C       7.1113536275    -2.2496755234    -0.3182203293
   61      C       6.0452681342    -1.3792491671     0.0404448060
   62      C       4.7373765209    -1.2540925618    -0.6818386231
   63      C       4.1423898952    -0.0320862555    -0.9779340513
   64      C       3.9674362931    -2.3504432063    -1.0254449532
   65      N       2.9374866960     0.1684333566    -1.4931817256
   66      N       4.3346797456    -3.6285188660    -0.7758175212
   67      C       2.7408133625    -2.2301788990    -1.6404089216
   68      C       2.2105070558    -0.8964889730    -1.8272147096
   69      S       3.2810658414    -4.5697096160    -1.5349135051
   70      N       2.1946848507    -3.4414423752    -1.9506482478
   71      C       1.0418280691    -0.7237791609    -2.6866678770
   72      S       0.0612050491    -2.0035159964    -3.4335213595
   73      C       0.6155900576     0.5535026433    -3.1408851713
   74      C      -1.1149425606    -0.7755656199    -4.0013916555
   75      S       1.1978161625     2.2071472123    -2.8408895015
   76      C      -0.5885494664     0.4709860309    -3.7648154681
   77      C      -2.5119321591    -0.9728966578    -4.3829431239
   78      C      -0.2234932226     2.8244068238    -3.7087306181
   79      C      -1.0759835810     1.7976064959    -4.0951064396
   80      N      -3.1368935566    -1.9570169955    -3.7694739622
   81      S      -3.4089353188     0.1340324665    -5.4361939228
   82      C      -4.5240763996    -1.8829027309    -4.0471299288
   83      C      -4.7629801834    -0.9109460020    -5.0139303731
   84      C       9.8794660954    -1.7168315029     2.0291170165
   85      H       7.7579838378     0.0975857832     2.5355278604
   86      H       5.7309988272     0.3774017486     1.2162736043
   87      H       7.0882867989    -2.8842712339    -1.2029435661
   88      H       4.6680509403     0.8334626057    -0.5781208018
   89      H      -0.3329669115     3.8531058766    -4.0272424236
   90      H      -1.9466702099     2.0709052268    -4.6804931476
   91      H      -5.2374355016    -2.6352695072    -3.7373170408
   92      H      -5.7404428684    -0.6948041413    -5.4232546887
   93      H       9.8775863291    -1.1132622636     2.9453684230
   94      C      11.1374124521    -1.2652362840     1.1922109751
   95      H      10.0074145548    -2.7633893047     2.3341103923
   96      H      11.0720755293    -0.1797947827     1.0474669469
   97      H      11.0370738363    -1.8091049590     0.2453614482
   98      C      12.4560635025    -1.5304128222     1.9426307316
   99      H      13.1871780550    -0.8241556543     1.5306970916
  100      C      13.0282221646    -2.9513083777     1.7474096115
  101      H      12.4580948198    -1.2751830944     3.0090596602
  102      H      13.1878938597    -3.0100192277     0.6637334672
  103      H      12.3581139642    -3.7456821328     2.0975557767
  104      C      14.3747636743    -3.2025184977     2.4894590967
  105      H      15.1753398202    -2.5303990399     2.1591875886
  106      C      14.9539846739    -4.6540582254     2.2939969459
  107      H      14.2445143445    -2.9086825273     3.5381852452
  108      H      15.9345007431    -4.7630831125     2.7740717444
  109      H      14.8987860584    -4.7990488604     1.2081881098
  110      H      14.2629221217    -5.3956499129     2.7128087391
 ----------------------------------------------------------------

   10   -5663.5026278760      3.98E-06 Convergence criterion met
 Total energy in the final basis set = -5663.5026278760

                    Orbital Energies (a.u.)
 --------------------------------------------------------------

 Alpha MOs
 -- Occupied --
-88.988 -88.988 -88.935 -88.926 -88.924 -88.918 -88.910 -88.910
-14.390 -14.385 -14.381 -14.371 -14.348 -14.348 -14.343 -14.342
-14.324 -14.323 -10.273 -10.266 -10.262 -10.259 -10.258 -10.257
-10.250 -10.245 -10.244 -10.240 -10.239 -10.237 -10.237 -10.235
-10.235 -10.235 -10.232 -10.232 -10.230 -10.230 -10.228 -10.228
-10.226 -10.226 -10.225 -10.225 -10.220 -10.220 -10.216 -10.216
-10.214 -10.210 -10.209 -10.206 -10.202 -10.201 -10.201 -10.199
-10.185 -10.185 -10.183 -10.178 -10.178 -10.177 -10.177 -10.176
-10.174 -10.170 -10.169 -10.165  -8.044  -8.043  -7.996  -7.985
 -7.983  -7.977  -7.972  -7.969  -6.009  -6.008  -6.003  -6.003
 -6.002  -6.001  -5.959  -5.957  -5.952  -5.949  -5.948  -5.946
 -5.944  -5.942  -5.941  -5.940  -5.937  -5.936  -5.934  -5.933
 -5.932  -5.930  -5.928  -5.925  -1.040  -1.030  -0.967  -0.963
 -0.962  -0.956  -0.947  -0.942  -0.914  -0.909  -0.904  -0.897
 -0.847  -0.840  -0.838  -0.824  -0.811  -0.810  -0.807  -0.807
 -0.804  -0.801  -0.795  -0.793  -0.787  -0.777  -0.765  -0.764
 -0.747  -0.747  -0.741  -0.736  -0.725  -0.721  -0.712  -0.709
 -0.695  -0.695  -0.675  -0.673  -0.655  -0.652  -0.646  -0.643
 -0.637  -0.634  -0.627  -0.626  -0.608  -0.603  -0.598  -0.597
 -0.592  -0.591  -0.581  -0.577  -0.575  -0.574  -0.570  -0.567
 -0.546  -0.545  -0.542  -0.539  -0.526  -0.523  -0.515  -0.514
 -0.510  -0.507  -0.501  -0.495  -0.489  -0.477  -0.476  -0.475
 -0.475  -0.472  -0.468  -0.467  -0.460  -0.457  -0.453  -0.450
 -0.448  -0.447  -0.441  -0.439  -0.433  -0.431  -0.430  -0.429
 -0.428  -0.427  -0.423  -0.421  -0.419  -0.414  -0.413  -0.411
 -0.410  -0.408  -0.408  -0.403  -0.402  -0.400  -0.400  -0.395
 -0.395  -0.393  -0.393  -0.391  -0.388  -0.385  -0.384  -0.382
 -0.379  -0.373  -0.372  -0.370  -0.363  -0.362  -0.361  -0.356
 -0.354  -0.353  -0.348  -0.347  -0.345  -0.343  -0.341  -0.336
 -0.336  -0.334  -0.331  -0.328  -0.327  -0.324  -0.322  -0.319
 -0.316  -0.314  -0.313  -0.307  -0.302  -0.301  -0.299  -0.298
 -0.297  -0.295  -0.293  -0.291  -0.286  -0.286  -0.285  -0.282
 -0.277  -0.267  -0.264  -0.261  -0.251  -0.250  -0.249  -0.246
 -0.243  -0.242  -0.235  -0.227  -0.193  -0.191

          Ground-State Mulliken Net Atomic Charges

     Atom                 Charge (a.u.)
  ----------------------------------------
      1 C                     0.285993
      2 C                    -0.117413
      3 N                    -0.489473
      4 C                    -0.103373
      5 C                     0.068376
      6 C                     0.063090
      7 C                     0.036875
      8 C                     0.070025
      9 C                     0.230238
     10 N                    -0.505315
     11 N                    -0.556669
     12 C                     0.221896
     13 C                     0.247877
     14 S                     0.606157
     15 N                    -0.552172
     16 C                    -0.193608
     17 S                     0.329576
     18 C                    -0.105334
     19 C                    -0.209090
     20 S                     0.297255
     21 C                     0.133264
     22 C                     0.062630
     23 C                    -0.294278
     24 C                    -0.089872
     25 N                    -0.430698
     26 S                     0.268181
     27 C                     0.109924
     28 C                    -0.315081
     29 C                    -0.248762
     30 H                     0.090860
     31 H                     0.088904
     32 H                     0.124056
     33 H                     0.115532
     34 H                     0.129766
     35 H                     0.112821
     36 H                     0.113992
     37 H                     0.135447
     38 H                     0.112530
     39 C                    -0.173388
     40 H                     0.104874
     41 H                     0.120354
     42 H                     0.097603
     43 C                    -0.188595
     44 H                     0.087412
     45 C                    -0.154098
     46 H                     0.086931
     47 H                     0.094640
     48 H                     0.092998
     49 C                    -0.175177
     50 H                     0.093444
     51 C                    -0.315212
     52 H                     0.088415
     53 H                     0.098037
     54 H                     0.095291
     55 H                     0.101353
     56 C                     0.296642
     57 C                    -0.141619
     58 N                    -0.477436
     59 C                    -0.085188
     60 C                     0.089436
     61 C                     0.041973
     62 C                     0.030320
     63 C                     0.052053
     64 C                     0.214229
     65 N                    -0.515815
     66 N                    -0.548606
     67 C                     0.201958
     68 C                     0.332828
     69 S                     0.610727
     70 N                    -0.569057
     71 C                    -0.239457
     72 S                     0.362021
     73 C                    -0.127784
     74 C                    -0.219370
     75 S                     0.296318
     76 C                     0.158489
     77 C                     0.047782
     78 C                    -0.302224
     79 C                    -0.080354
     80 N                    -0.410185
     81 S                     0.276046
     82 C                     0.105409
     83 C                    -0.295088
     84 C                    -0.219048
     85 H                     0.082359
     86 H                     0.098260
     87 H                     0.106861
     88 H                     0.096221
     89 H                     0.132917
     90 H                     0.105580
     91 H                     0.127636
     92 H                     0.121867
     93 H                     0.089747
     94 C                    -0.181142
     95 H                     0.120407
     96 H                     0.089517
     97 H                     0.120261
     98 C                    -0.183784
     99 H                     0.090420
    100 C                    -0.166309
    101 H                     0.087965
    102 H                     0.094836
    103 H                     0.095631
    104 C                    -0.185972
    105 H                     0.090599
    106 C                    -0.319162
    107 H                     0.087526
    108 H                     0.104233
    109 H                     0.107587
    110 H                     0.101924
  ----------------------------------------
  Sum of atomic charges =     0.000000

                    Cartesian Multipole Moments
 -----------------------------------------------------------------
    Charge (ESU x 10^10)
                 0.0000
    Dipole Moment (Debye)
         X      -0.5103      Y       1.4437      Z      -2.4735
       Tot       2.9091
    Quadrupole Moments (Debye-Ang)
        XX    -413.0441     XY      15.1910     YY    -442.9301
        XZ      32.8527     YZ      -9.0568     ZZ    -434.9831

 Total job time:  97.13s(wall), 1051.41s(cpu)
        *  Thank you very much for using Q-Chem.  Have a nice day.  *
