 Q-Chem 4.4, Q-Chem, Inc., Pleasanton, CA (2016)
 Q-Chem 4.4.2 for Intel X86 Linux

User input:
--------------------------------------------------------------
$comment
SP
$end

$rem
MEM_STATIC 5000
MEM_TOTAL 20000
JOBTYPE SP
EXCHANGE B3LYP
BASIS 6-31g(d,p)
$end

$molecule
0 1
C         -12.081000      7.156000     -3.163000
C         -12.047000      6.767000     -1.792000
N         -10.964000      7.049000     -3.965000
C         -10.938000      6.102000     -1.302000
C          -9.868000      6.473000     -3.505000
C          -9.820000      5.880000     -2.197000
C          -8.698000      5.034000     -1.770000
C          -8.906000      3.863000     -0.964000
C          -7.365000      5.212000     -2.182000
N          -7.961000      2.999000     -0.618000
N          -6.962000      6.320000     -2.807000
C          -6.375000      4.274000     -1.938000
C          -6.625000      3.173000     -1.101000
S          -5.333000      6.058000     -3.172000
N          -5.155000      4.554000     -2.509000
C          -5.588000      2.126000     -0.801000
S          -4.048000      1.864000     -1.609000
C          -5.774000      1.229000      0.189000
C          -3.694000      0.513000     -0.543000
S          -6.998000      1.194000      1.450000
C          -4.685000      0.407000      0.418000
C          -2.446000     -0.201000     -0.582000
C          -6.062000     -0.116000      2.289000
C          -4.742000     -0.209000      1.742000
N          -2.337000     -1.320000      0.114000
S          -1.074000      0.250000     -1.599000
C          -1.085000     -1.891000     -0.035000
C          -0.243000     -1.134000     -0.902000
C         -13.349000      7.587000     -3.957000
H         -12.988000      6.905000     -1.268000
H         -11.095000      5.676000     -0.315000
H          -9.038000      6.548000     -4.206000
H          -9.901000      3.648000     -0.577000
H          -6.464000     -0.556000      3.192000
H          -3.939000     -0.828000      2.126000
H          -0.782000     -2.803000      0.462000
H           0.765000     -1.378000     -1.212000
H         -13.526000      8.655000     -3.777000
C         -14.571000      6.678000     -3.701000
H         -12.927000      7.530000     -4.967000
H         -15.461000      7.105000     -4.180000
H         -14.772000      6.838000     -2.635000
C         -14.310000      5.193000     -4.115000
H         -13.888000      5.067000     -5.120000
C         -15.617000      4.333000     -4.077000
H         -13.671000      4.711000     -3.366000
H         -16.313000      5.072000     -4.493000
H         -15.989000      4.151000     -3.061000
C         -15.471000      2.944000     -4.819000
H         -15.195000      3.205000     -5.848000
C         -16.774000      2.243000     -4.897000
H         -14.671000      2.353000     -4.356000
H         -16.647000      1.614000     -5.787000
H         -17.602000      2.926000     -5.126000
H         -16.969000      1.731000     -3.947000
C           3.072000     -0.686000     -3.913000
C           2.740000      0.285000     -2.952000
N           2.433000     -0.690000     -5.047000
C           1.816000      1.318000     -3.234000
C           1.503000      0.250000     -5.319000
C           1.131000      1.296000     -4.430000
C           0.154000      2.393000     -4.730000
C           0.384000      3.728000     -4.414000
C          -1.101000      2.150000     -5.258000
N          -0.470000      4.736000     -4.524000
N          -1.548000      0.915000     -5.583000
C          -2.017000      3.154000     -5.482000
C          -1.672000      4.489000     -5.042000
S          -2.935000      1.115000     -6.363000
N          -3.157000      2.694000     -6.074000
C          -2.505000      5.606000     -5.481000
S          -4.029000      5.515000     -6.390000
C          -2.102000      6.960000     -5.327000
C          -4.263000      7.280000     -6.181000
S          -0.676000      7.728000     -4.592000
C          -3.117000      7.808000     -5.638000
C          -5.507000      8.042000     -6.270000
C          -1.457000      9.307000     -4.818000
C          -2.738000      9.177000     -5.340000
N          -6.600000      7.391000     -5.928000
S          -5.573000      9.780000     -6.608000
C          -7.681000      8.301000     -5.827000
C          -7.291000      9.554000     -6.290000
C           4.015000     -1.843000     -3.656000
H           3.327000      0.388000     -2.044000
H           1.867000      2.237000     -2.658000
H           1.136000      0.181000     -6.342000
H           1.305000      3.908000     -3.862000
H          -0.943000     10.253000     -4.706000
H          -3.276000     10.091000     -5.565000
H          -8.705000      7.997000     -5.654000
H          -7.953000     10.407000     -6.352000
H           4.343000     -1.797000     -2.610000
C           5.320000     -1.820000     -4.541000
H           3.506000     -2.806000     -3.791000
H           5.899000     -0.931000     -4.262000
H           4.944000     -1.755000     -5.569000
C           6.224000     -3.037000     -4.269000
H           7.238000     -2.732000     -4.555000
C           5.871000     -4.293000     -5.095000
H           6.350000     -3.312000     -3.215000
H           5.991000     -3.953000     -6.131000
H           4.857000     -4.668000     -4.911000
C           6.806000     -5.511000     -4.832000
H           7.855000     -5.303000     -5.073000
C           6.441000     -6.793000     -5.671000
H           6.847000     -5.680000     -3.749000
H           7.166000     -7.600000     -5.507000
H           6.336000     -6.401000     -6.690000
H           5.439000     -7.148000     -5.401000
$end

--------------------------------------------------------------

             Standard Nuclear Orientation (Angstroms)
    I     Atom           X                Y                Z
 ----------------------------------------------------------------
    1      C       8.8167483454     0.3541937600    -0.0255547205
    2      C       8.6259555100     1.3823572442     0.9432568937
    3      N       7.7690834651    -0.4410370414    -0.4407032134
    4      C       7.3428804225     1.7131830130     1.3388306929
    5      C       6.5391695413    -0.1874923977    -0.0312903976
    6      C       6.2381437300     0.9515143062     0.7914271660
    7      C       4.8566318021     1.3765574600     1.0516042413
    8      C       4.4978682630     2.7665587067     1.1092779537
    9      C       3.7609034229     0.5010371983     1.1572479360
   10      N       3.2621741673     3.2290931836     1.2447731919
   11      N       3.9212975093    -0.8185556868     1.2740655496
   12      C       2.4487196998     0.9447796021     1.1845711128
   13      C       2.1606771840     2.3163406722     1.2900307724
   14      S       2.3570664108    -1.4576441273     1.2900978834
   15      N       1.4980899047    -0.0497329046     1.1751441922
   16      C       0.7563696697     2.8532539316     1.3249958572
   17      S      -0.7372143119     2.0052040950     0.9466754051
   18      C       0.5114775312     4.1331679849     1.6730660467
   19      C      -1.6714771301     3.4531423200     1.2894594229
   20      S       1.5938620274     5.3272718223     2.3745514904
   21      C      -0.8330332475     4.4444305243     1.7702894883
   22      C      -3.1092965363     3.4754875715     1.2578834050
   23      C       0.1629517505     6.3942114458     2.7065945892
   24      C      -1.0522954751     5.6499999549     2.5666608988
   25      N      -3.7242534579     4.6435201715     1.3352515503
   26      S      -4.1202579978     2.0503293923     0.9991265930
   27      C      -5.0996289765     4.4980663350     1.2811094748
   28      C      -5.4963473403     3.1347099933     1.1485348719
   29      C      10.1234208232     0.0910791336    -0.8301656383
   30      H       9.5286328646     1.9335355669     1.1891777144
   31      H       7.2959586040     2.6317757064     1.9170000509
   32      H       5.8322009770    -0.9504442398    -0.3538209165
   33      H       5.2781547839     3.5245184101     1.0576152660
   34      H       0.3235358589     7.3720805496     3.1408730252
   35      H      -2.0460875242     6.0073011835     2.8118938395
   36      H      -5.7905131867     5.3282904028     1.3441095169
   37      H      -6.5045877626     2.7535690229     1.0491225409
   38      H      10.7891908139    -0.5313200132    -0.2188370674
   39      C      10.7718213490     1.3785158723    -1.3844078255
   40      H       9.7074995227    -0.5857180140    -1.5854060587
   41      H      11.7494037828     1.1447929202    -1.8243807414
   42      H      11.0431127978     1.9241242962    -0.4727777483
   43      C       9.8301614484     2.1481589275    -2.3670920063
   44      H       9.3815784378     1.5251520504    -3.1510695020
   45      C      10.5728431967     3.3125110699    -3.1032991166
   46      H       9.0520389964     2.6684006686    -1.7965484229
   47      H      11.5288719284     2.8073215150    -3.2887326023
   48      H      10.8314346201     4.1499969175    -2.4433658390
   49      C       9.7722663128     3.8754817931    -4.3456121278
   50      H       9.6354264154     3.0096716993    -5.0049949634
   51      C      10.5848818153     4.8569010041    -5.1017644785
   52      H       8.7957721935     4.2566589516    -4.0218634461
   53      H      10.1591675766     4.7836939317    -6.1103665366
   54      H      11.6337351087     4.5471592443    -5.1938557975
   55      H      10.5299431070     5.8335222948    -4.6059201554
   56      C      -8.2531649583    -0.1384202589    -0.2452459479
   57      C      -7.4834979347    -0.1996093866     0.9296815238
   58      N      -7.7123748384    -0.5107736595    -1.3691640905
   59      C      -6.1849658441    -0.7601312512     0.9339999409
   60      C      -6.4525284152    -0.9946743822    -1.4024969648
   61      C      -5.6133118284    -1.1353949867    -0.2628767509
   62      C      -4.2380750620    -1.7325831255    -0.2575698786
   63      C      -3.8013967152    -2.6357069019     0.7061004312
   64      C      -3.2581239650    -1.3559471591    -1.1579582373
   65      N      -2.5733517177    -3.1103608477     0.8613071189
   66      N      -3.4565317260    -0.4475193107    -2.1408377846
   67      C      -1.9793910045    -1.8662406461    -1.1168416609
   68      C      -1.6417670837    -2.7458402576    -0.0181312298
   69      S      -2.1545296012    -0.4858712414    -3.0765132606
   70      N      -1.2047425844    -1.4088959962    -2.1427167491
   71      C      -0.3861696496    -3.4901189152    -0.0799645799
   72      S       0.8960482543    -3.3309407632    -1.2996848604
   73      C      -0.0955244139    -4.5634918204     0.8048161576
   74      C       1.9432876732    -4.4308730001    -0.3472665312
   75      S      -0.9732011720    -5.2810785167     2.1753189273
   76      C       1.1947839048    -4.9677826052     0.6717620183
   77      C       3.3981508284    -4.5606363725    -0.3986052762
   78      C       0.4595967247    -6.2702185354     2.5259900134
   79      C       1.5161637213    -5.9637834310     1.6773978214
   80      N       4.0569685407    -3.4668492553    -0.7226468849
   81      S       4.2752548868    -6.0064733387     0.1300609116
   82      C       5.4419223889    -3.6649216080    -0.5000886200
   83      C       5.6853824079    -4.9976836671    -0.1823615151
   84      C      -9.6277027074     0.4927127236    -0.3243922335
   85      H      -7.9354555388    -0.0045332513     1.8978352438
   86      H      -5.7836979698    -1.1431332366     1.8673978047
   87      H      -6.1800315582    -1.3635033301    -2.3902670140
   88      H      -4.5169047293    -2.8229107419     1.5050672666
   89      H       0.4581893407    -7.1079475037     3.2114564202
   90      H       2.4195151559    -6.5547645460     1.7782070833
   91      H       6.2017814315    -2.9474994588    -0.7808744728
   92      H       6.6717293452    -5.4058155219    -0.0084503066
   93      H      -9.8763962734     0.9063353195     0.6609421556
   94      C     -10.7805502715    -0.5172759071    -0.6953968960
   95      H      -9.6391623488     1.3284340828    -1.0358087687
   96      H     -10.8633188889    -1.2462730491     0.1201492541
   97      H     -10.4366216096    -0.9844848801    -1.6258880841
   98      C     -12.1489840315     0.1816236338    -0.8013094828
   99      H     -12.9015259538    -0.5947699988    -0.6171612205
  100      C     -12.4487607612     0.7937151533    -2.1869136413
  101      H     -12.3721251488     0.9155023388    -0.0176979156
  102      H     -12.4109437567    -0.0738331550    -2.8571567367
  103      H     -11.7312089430     1.5658237561    -2.4896423874
  104      C     -13.8451057968     1.4763752434    -2.2923353803
  105      H     -14.6737064381     0.7828868061    -2.1072927781
  106      C     -14.1468874194     2.1052117904    -3.7044835486
  107      H     -13.9426334312     2.1807735944    -1.4572052566
  108      H     -15.1650764747     2.5109299890    -3.7540193022
  109      H     -13.8860906384     1.2958715360    -4.3973063194
  110      H     -13.4289136608     2.9051399397    -3.9225606864
 ----------------------------------------------------------------

    9   -5663.4901832966      9.26E-06 Convergence criterion met
 Total energy in the final basis set = -5663.4901832966

                    Orbital Energies (a.u.)
 --------------------------------------------------------------

 Alpha MOs
 -- Occupied --
-88.989 -88.977 -88.936 -88.932 -88.922 -88.920 -88.916 -88.899
-14.382 -14.379 -14.373 -14.369 -14.351 -14.351 -14.346 -14.337
-14.327 -14.327 -10.275 -10.265 -10.261 -10.259 -10.251 -10.246
-10.244 -10.244 -10.242 -10.240 -10.237 -10.235 -10.235 -10.234
-10.234 -10.233 -10.232 -10.232 -10.231 -10.231 -10.231 -10.230
-10.227 -10.225 -10.224 -10.220 -10.219 -10.219 -10.216 -10.214
-10.214 -10.213 -10.211 -10.207 -10.202 -10.202 -10.200 -10.199
-10.189 -10.188 -10.186 -10.186 -10.180 -10.179 -10.179 -10.179
-10.177 -10.175 -10.175 -10.168  -8.045  -8.031  -7.996  -7.989
 -7.982  -7.980  -7.975  -7.958  -6.010  -6.004  -6.003  -5.996
 -5.990  -5.989  -5.960  -5.957  -5.954  -5.953  -5.950  -5.946
 -5.946  -5.944  -5.942  -5.940  -5.940  -5.939  -5.936  -5.936
 -5.931  -5.923  -5.919  -5.914  -1.041  -1.015  -0.969  -0.965
 -0.956  -0.951  -0.935  -0.932  -0.915  -0.907  -0.898  -0.889
 -0.844  -0.842  -0.829  -0.818  -0.813  -0.808  -0.803  -0.803
 -0.800  -0.799  -0.795  -0.789  -0.781  -0.780  -0.767  -0.762
 -0.749  -0.741  -0.740  -0.731  -0.728  -0.719  -0.712  -0.706
 -0.697  -0.685  -0.676  -0.665  -0.656  -0.648  -0.648  -0.639
 -0.632  -0.630  -0.625  -0.612  -0.611  -0.608  -0.599  -0.595
 -0.591  -0.585  -0.583  -0.579  -0.577  -0.574  -0.572  -0.569
 -0.548  -0.544  -0.540  -0.528  -0.526  -0.517  -0.513  -0.508
 -0.499  -0.498  -0.497  -0.492  -0.490  -0.480  -0.478  -0.473
 -0.472  -0.470  -0.465  -0.462  -0.459  -0.454  -0.450  -0.450
 -0.446  -0.441  -0.440  -0.438  -0.435  -0.434  -0.430  -0.426
 -0.426  -0.424  -0.424  -0.420  -0.419  -0.416  -0.414  -0.413
 -0.410  -0.408  -0.404  -0.402  -0.402  -0.401  -0.398  -0.395
 -0.392  -0.391  -0.390  -0.387  -0.386  -0.385  -0.381  -0.381
 -0.378  -0.376  -0.372  -0.372  -0.367  -0.364  -0.358  -0.357
 -0.351  -0.349  -0.347  -0.347  -0.343  -0.342  -0.338  -0.338
 -0.337  -0.333  -0.329  -0.326  -0.325  -0.322  -0.320  -0.320
 -0.316  -0.316  -0.309  -0.304  -0.301  -0.300  -0.298  -0.295
 -0.294  -0.292  -0.291  -0.290  -0.286  -0.283  -0.281  -0.278
 -0.274  -0.267  -0.265  -0.263  -0.254  -0.253  -0.250  -0.245
 -0.240  -0.239  -0.238  -0.218  -0.197  -0.183

          Ground-State Mulliken Net Atomic Charges

     Atom                 Charge (a.u.)
  ----------------------------------------
      1 C                     0.256741
      2 C                    -0.110392
      3 N                    -0.497059
      4 C                    -0.081171
      5 C                     0.113204
      6 C                     0.002790
      7 C                     0.037776
      8 C                     0.079109
      9 C                     0.238194
     10 N                    -0.515310
     11 N                    -0.575430
     12 C                     0.206605
     13 C                     0.256643
     14 S                     0.631568
     15 N                    -0.574301
     16 C                    -0.201059
     17 S                     0.323375
     18 C                    -0.120562
     19 C                    -0.237000
     20 S                     0.273987
     21 C                     0.174059
     22 C                     0.051966
     23 C                    -0.303500
     24 C                    -0.072964
     25 N                    -0.437933
     26 S                     0.279229
     27 C                     0.116069
     28 C                    -0.313442
     29 C                    -0.240126
     30 H                     0.089691
     31 H                     0.106998
     32 H                     0.127485
     33 H                     0.105134
     34 H                     0.129893
     35 H                     0.121690
     36 H                     0.117957
     37 H                     0.131684
     38 H                     0.105320
     39 C                    -0.190548
     40 H                     0.125497
     41 H                     0.095470
     42 H                     0.094645
     43 C                    -0.171475
     44 H                     0.102862
     45 C                    -0.185120
     46 H                     0.101600
     47 H                     0.085946
     48 H                     0.085026
     49 C                    -0.178810
     50 H                     0.092835
     51 C                    -0.305992
     52 H                     0.099807
     53 H                     0.099834
     54 H                     0.104945
     55 H                     0.103883
     56 C                     0.297816
     57 C                    -0.154299
     58 N                    -0.476329
     59 C                    -0.083381
     60 C                     0.091446
     61 C                     0.039974
     62 C                     0.037969
     63 C                     0.056167
     64 C                     0.223615
     65 N                    -0.519941
     66 N                    -0.550438
     67 C                     0.205991
     68 C                     0.338796
     69 S                     0.620434
     70 N                    -0.570141
     71 C                    -0.248727
     72 S                     0.359884
     73 C                    -0.122002
     74 C                    -0.228348
     75 S                     0.290901
     76 C                     0.156251
     77 C                     0.046170
     78 C                    -0.308280
     79 C                    -0.083001
     80 N                    -0.421840
     81 S                     0.277961
     82 C                     0.116458
     83 C                    -0.301090
     84 C                    -0.220275
     85 H                     0.086689
     86 H                     0.107767
     87 H                     0.109019
     88 H                     0.098533
     89 H                     0.133540
     90 H                     0.109634
     91 H                     0.149751
     92 H                     0.128633
     93 H                     0.088898
     94 C                    -0.181531
     95 H                     0.120652
     96 H                     0.090926
     97 H                     0.121267
     98 C                    -0.184472
     99 H                     0.091586
    100 C                    -0.166388
    101 H                     0.087965
    102 H                     0.095339
    103 H                     0.095444
    104 C                    -0.186619
    105 H                     0.091161
    106 C                    -0.318992
    107 H                     0.087575
    108 H                     0.104672
    109 H                     0.107871
    110 H                     0.102016
  ----------------------------------------
  Sum of atomic charges =     0.000000

                    Cartesian Multipole Moments
 -----------------------------------------------------------------
    Charge (ESU x 10^10)
                 0.0000
    Dipole Moment (Debye)
         X       0.5643      Y      -2.5216      Z       1.7438
       Tot       3.1173
    Quadrupole Moments (Debye-Ang)
        XX    -389.0664     XY      -7.4258     YY    -424.8467
        XZ      -7.5655     YZ      -2.5206     ZZ    -443.4924

 Total job time:  92.63s(wall), 1008.65s(cpu)
        *  Thank you very much for using Q-Chem.  Have a nice day.  *
