 Q-Chem 4.4, Q-Chem, Inc., Pleasanton, CA (2016)
 Q-Chem 4.4.2 for Intel X86 Linux

User input:
--------------------------------------------------------------
$comment
SP
$end

$rem
MEM_STATIC 5000
MEM_TOTAL 20000
JOBTYPE SP
EXCHANGE B3LYP
BASIS 6-31g(d,p)
$end

$molecule
0 1
C           8.111000     18.327000     -7.223000
C           6.856000     17.759000     -7.459000
N           9.054000     17.483000     -6.760000
C           6.429000     16.479000     -7.091000
C           8.666000     16.236000     -6.415000
C           7.338000     15.606000     -6.576000
C           6.970000     14.180000     -6.374000
C           5.933000     13.913000     -5.547000
C           7.667000     13.161000     -6.971000
N           5.461000     12.693000     -5.328000
N           8.703000     13.276000     -7.830000
C           7.147000     11.816000     -6.867000
C           6.000000     11.634000     -5.971000
S           8.966000     11.698000     -8.381000
N           7.826000     10.901000     -7.625000
C           5.338000     10.314000     -5.740000
S           5.965000      8.753000     -6.273000
C           4.227000     10.074000     -4.926000
C           4.618000      7.831000     -5.506000
S           3.105000     11.272000     -4.325000
C           3.828000      8.714000     -4.870000
C           4.384000      6.489000     -5.478000
C           1.973000      9.895000     -3.995000
C           2.547000      8.632000     -4.221000
N           5.002000      5.858000     -6.411000
S           3.572000      5.504000     -4.246000
C           4.982000      4.496000     -6.197000
C           4.221000      4.070000     -5.182000
C           8.588000     19.778000     -7.482000
H           6.059000     18.416000     -7.795000
H           5.376000     16.255000     -7.237000
H           9.496000     15.677000     -5.985000
H           5.312000     14.687000     -5.098000
H           1.066000     10.091000     -3.439000
H           2.071000      7.682000     -4.003000
H           5.597000      3.869000     -6.829000
H           4.117000      3.103000     -4.709000
H           9.254000     19.902000     -8.345000
C           9.151000     20.386000     -6.143000
H           7.640000     20.284000     -7.704000
H          10.171000     20.025000     -5.964000
H           8.485000     20.145000     -5.304000
C           9.200000     21.944000     -6.140000
H           8.169000     22.313000     -6.204000
C           9.999000     22.634000     -7.277000
H           9.427000     22.388000     -5.163000
H           9.781000     22.060000     -8.186000
H          11.077000     22.496000     -7.129000
C           9.588000     24.145000     -7.367000
H          10.033000     24.534000     -8.291000
C           9.915000     25.048000     -6.085000
H           8.511000     24.285000     -7.524000
H          10.984000     25.236000     -5.923000
H           9.562000     24.518000     -5.192000
H           9.466000     26.049000     -6.075000
C           3.072000     -0.686000     -3.913000
C           2.740000      0.285000     -2.952000
N           2.433000     -0.690000     -5.047000
C           1.816000      1.318000     -3.234000
C           1.503000      0.250000     -5.319000
C           1.131000      1.296000     -4.430000
C           0.154000      2.393000     -4.730000
C           0.384000      3.728000     -4.414000
C          -1.101000      2.150000     -5.258000
N          -0.470000      4.736000     -4.524000
N          -1.548000      0.915000     -5.583000
C          -2.017000      3.154000     -5.482000
C          -1.672000      4.489000     -5.042000
S          -2.935000      1.115000     -6.363000
N          -3.157000      2.694000     -6.074000
C          -2.505000      5.606000     -5.481000
S          -4.029000      5.515000     -6.390000
C          -2.102000      6.960000     -5.327000
C          -4.263000      7.280000     -6.181000
S          -0.676000      7.728000     -4.592000
C          -3.117000      7.808000     -5.638000
C          -5.507000      8.042000     -6.270000
C          -1.457000      9.307000     -4.818000
C          -2.738000      9.177000     -5.340000
N          -6.600000      7.391000     -5.928000
S          -5.573000      9.780000     -6.608000
C          -7.681000      8.301000     -5.827000
C          -7.291000      9.554000     -6.290000
C           4.015000     -1.843000     -3.656000
H           3.327000      0.388000     -2.044000
H           1.867000      2.237000     -2.658000
H           1.136000      0.181000     -6.342000
H           1.305000      3.908000     -3.862000
H          -0.943000     10.253000     -4.706000
H          -3.276000     10.091000     -5.565000
H          -8.705000      7.997000     -5.654000
H          -7.953000     10.407000     -6.352000
H           4.343000     -1.797000     -2.610000
C           5.320000     -1.820000     -4.541000
H           3.506000     -2.806000     -3.791000
H           5.899000     -0.931000     -4.262000
H           4.944000     -1.755000     -5.569000
C           6.224000     -3.037000     -4.269000
H           7.238000     -2.732000     -4.555000
C           5.871000     -4.293000     -5.095000
H           6.350000     -3.312000     -3.215000
H           5.991000     -3.953000     -6.131000
H           4.857000     -4.668000     -4.911000
C           6.806000     -5.511000     -4.832000
H           7.855000     -5.303000     -5.073000
C           6.441000     -6.793000     -5.671000
H           6.847000     -5.680000     -3.749000
H           7.166000     -7.600000     -5.507000
H           6.336000     -6.401000     -6.690000
H           5.439000     -7.148000     -5.401000
$end

--------------------------------------------------------------

             Standard Nuclear Orientation (Angstroms)
    I     Atom           X                Y                Z
 ----------------------------------------------------------------
    1      C      11.4942018544    -0.7906636374    -0.5532593173
    2      C      10.5018343010     0.1474598088    -0.8507085373
    3      N      11.0515637791    -2.0013436031    -0.1604749552
    4      C       9.1302911500     0.0284847127    -0.6039955225
    5      C       9.7275447777    -2.1426201672     0.0666651257
    6      C       8.6432378738    -1.1637256659    -0.1623525452
    7      C       7.1755942164    -1.3895771852    -0.0936707715
    8      C       6.4521667777    -0.5633605709     0.6966493202
    9      C       6.5681234281    -2.4133171237    -0.7744899689
   10      N       5.1308186534    -0.6133294317     0.8000284633
   11      N       7.1547677630    -3.2972832335    -1.6104650529
   12      C       5.1234602160    -2.4649418798    -0.7973829413
   13      C       4.4286749285    -1.5061680307     0.0683971178
   14      S       5.8610792379    -4.1421841073    -2.2999333360
   15      N       4.6181132772    -3.4269354284    -1.6292620695
   16      C       2.9401204668    -1.4209165861     0.1730049843
   17      S       1.8033666738    -2.5944022480    -0.4938242409
   18      C       2.2134841347    -0.5157092852     0.9521817185
   19      C       0.3637163717    -1.7380666796     0.1746654014
   20      S       2.8176108824     0.9688976360     1.6495067233
   21      C       0.8067659946    -0.6831615785     0.8811831007
   22      C      -0.9593008622    -2.0494336670     0.0788530952
   23      C       1.0837219918     1.4613125850     1.8434392712
   24      C       0.1723558181     0.4448444799     1.5088869004
   25      N      -1.2133902146    -2.8392266502    -0.9020850500
   26      S      -2.2869078180    -1.7226290497     1.2093624994
   27      C      -2.4868291169    -3.3603686835    -0.8126180559
   28      C      -3.2637712282    -2.8554594179     0.1529126734
   29      C      13.0324826083    -0.6536836502    -0.6754878125
   30      H      10.8195681909     1.1470996879    -1.1327001815
   31      H       8.5243905583     0.9131333420    -0.7788734103
   32      H       9.5043378205    -3.1368081078     0.4514377768
   33      H       6.8780083813     0.2985842929     1.2085360073
   34      H       0.8587713871     2.3568613991     2.4069909964
   35      H      -0.9032707986     0.5043664615     1.6357116423
   36      H      -2.7645558506    -4.1541480661    -1.4934705753
   37      H      -4.2310188814    -3.1517454141     0.5353791240
   38      H      13.4824261921    -1.1937470995    -1.5178554532
   39      C      13.6940236302    -0.9702065676     0.7179721687
   40      H      13.1427780912     0.4225122465    -0.8589579695
   41      H      13.7484905455    -2.0546186091     0.8723932794
   42      H      13.1390404948    -0.4753203536     1.5258331435
   43      C      15.1394708857    -0.4049349249     0.8626241701
   44      H      15.0780291592     0.6895516250     0.8233545087
   45      C      16.1836339483    -0.8379873451    -0.2001359629
   46      H      15.5503356772    -0.4667168023     1.8777926894
   47      H      15.6513771238    -0.8372934765    -1.1592935054
   48      H      16.4677393753    -1.8875119782    -0.0558648612
   49      C      17.4134915642     0.1344716949    -0.1563677102
   50      H      18.0245762698    -0.0968414779    -1.0373851327
   51      C      18.2574037868     0.1521370108     1.2050147111
   52      H      17.1323910054     1.1841088266    -0.3094113891
   53      H      18.8352378573    -0.7617723090     1.3927020634
   54      H      17.5560388770     0.2444564890     2.0431807909
   55      H      18.9967180841     0.9569651709     1.3018031539
   56      C      -8.1795546025    -3.6972179005     0.9754784603
   57      C      -7.5042957298    -3.0380042940     2.0176151480
   58      N      -8.3357214355    -3.0798195975    -0.1597414549
   59      C      -6.8968608481    -1.7757467200     1.8223776485
   60      C      -7.8166589350    -1.8487573018    -0.3535035372
   61      C      -7.0821903381    -1.1213851752     0.6233826740
   62      C      -6.4354080594     0.2151851884     0.4155597995
   63      C      -5.1502238760     0.5179881691     0.8532731413
   64      C      -7.1048729239     1.2887059863    -0.1432137605
   65      N      -4.5531181227     1.7013262134     0.8276646986
   66      N      -8.3829279885     1.2248924949    -0.5827158541
   67      C      -6.5258817824     2.5306426562    -0.2832514910
   68      C      -5.2063015858     2.7242628574     0.2789489380
   69      S      -8.6767560627     2.6003300236    -1.3534334856
   70      N      -7.3433153373     3.4151529965    -0.9244284100
   71      C      -4.4726004199     3.9400799186    -0.0642280905
   72      S      -5.0754618358     5.3310579717    -0.9909838128
   73      C      -3.0880294740     4.0957034754     0.2153887978
   74      C      -3.5694934609     6.2319997873    -0.6248894282
   75      S      -1.8887048583     3.0649004459     1.0293854689
   76      C      -2.6831923787     5.3699668822    -0.0262921828
   77      C      -3.3525832145     7.6770350964    -0.6552851588
   78      C      -0.7300736831     4.4080234028     0.9406582313
   79      C      -1.3068086365     5.5495619350     0.3978769005
   80      N      -4.4074914827     8.4176960060    -0.3832484654
   81      S      -1.7578964646     8.4280053630    -0.8349009394
   82      C      -4.0075595318     9.7655689145    -0.2095963497
   83      C      -2.6670213463     9.9106156917    -0.5536847185
   84      C      -8.8908905435    -5.0248407802     1.1347444895
   85      H      -7.2582928275    -3.5625524356     2.9362956253
   86      H      -6.0854076854    -1.4784955317     2.4797386573
   87      H      -7.9351647297    -1.5100326054    -1.3817063171
   88      H      -4.6716749914    -0.2737194362     1.4273245613
   89      H       0.3281737299     4.3028746337     1.1424307499
   90      H      -0.6617030873     6.4086415199     0.2519793431
   91      H      -4.7030024926    10.5833948498    -0.0737993405
   92      H      -2.1406026654    10.8553294312    -0.5438703018
   93      H      -8.8107531426    -5.3373460579     2.1834267333
   94      C      -8.2805944561    -6.1915166228     0.2668820787
   95      H      -9.9607433810    -4.9303155435     0.9085700308
   96      H      -7.2635040275    -6.3833860935     0.6303599544
   97      H      -8.2795132423    -5.7918765614    -0.7542308692
   98      C      -9.0634808236    -7.5071955720     0.4353066558
   99      H      -8.3612425167    -8.3123126956     0.1869827192
  100      C     -10.2803736888    -7.6518469818    -0.5041978541
  101      H      -9.3572568765    -7.7599211388     1.4610953371
  102      H      -9.8320503881    -7.6003827612    -1.5040246651
  103      H     -11.0378504240    -6.8713386562    -0.3637957555
  104      C     -11.0512218016    -8.9961779561    -0.3445563221
  105      H     -10.4279560938    -9.8727292632    -0.5565555286
  106      C     -12.2955034986    -9.1396213716    -1.2994683835
  107      H     -11.2838405365    -9.1300048895     0.7189801728
  108      H     -12.7639193274   -10.1270665858    -1.2029875029
  109      H     -11.8893964274    -8.8613347451    -2.2796130668
  110      H     -13.0374200118    -8.3646877977    -1.0715060105
 ----------------------------------------------------------------

   10   -5663.4812989341      3.46E-06 Convergence criterion met
 Total energy in the final basis set = -5663.4812989341

                    Orbital Energies (a.u.)
 --------------------------------------------------------------

 Alpha MOs
 -- Occupied --
-88.990 -88.989 -88.936 -88.928 -88.926 -88.923 -88.914 -88.914
-14.395 -14.383 -14.382 -14.373 -14.351 -14.351 -14.350 -14.336
-14.327 -14.327 -10.274 -10.274 -10.266 -10.264 -10.261 -10.257
-10.252 -10.246 -10.244 -10.243 -10.242 -10.238 -10.237 -10.236
-10.236 -10.233 -10.233 -10.232 -10.232 -10.231 -10.231 -10.229
-10.229 -10.229 -10.229 -10.227 -10.219 -10.218 -10.218 -10.215
-10.212 -10.209 -10.208 -10.207 -10.206 -10.206 -10.202 -10.194
-10.194 -10.187 -10.186 -10.185 -10.184 -10.180 -10.180 -10.179
-10.179 -10.176 -10.175 -10.174  -8.045  -8.045  -7.997  -7.986
 -7.986  -7.981  -7.973  -7.972  -6.010  -6.010  -6.005  -6.005
 -6.003  -6.003  -5.960  -5.958  -5.954  -5.950  -5.950  -5.947
 -5.946  -5.946  -5.942  -5.942  -5.942  -5.938  -5.937  -5.937
 -5.934  -5.933  -5.929  -5.929  -1.042  -1.035  -0.979  -0.969
 -0.965  -0.965  -0.950  -0.935  -0.912  -0.912  -0.905  -0.898
 -0.842  -0.841  -0.839  -0.838  -0.813  -0.812  -0.808  -0.803
 -0.803  -0.797  -0.797  -0.796  -0.780  -0.778  -0.768  -0.767
 -0.749  -0.748  -0.739  -0.736  -0.729  -0.718  -0.711  -0.708
 -0.697  -0.693  -0.681  -0.675  -0.657  -0.656  -0.648  -0.647
 -0.640  -0.639  -0.629  -0.624  -0.614  -0.610  -0.603  -0.599
 -0.596  -0.592  -0.588  -0.583  -0.578  -0.576  -0.568  -0.561
 -0.548  -0.547  -0.544  -0.539  -0.526  -0.524  -0.521  -0.517
 -0.512  -0.508  -0.500  -0.497  -0.491  -0.487  -0.482  -0.477
 -0.473  -0.471  -0.470  -0.467  -0.462  -0.453  -0.450  -0.449
 -0.449  -0.446  -0.443  -0.441  -0.435  -0.434  -0.433  -0.432
 -0.431  -0.426  -0.423  -0.421  -0.416  -0.414  -0.413  -0.412
 -0.410  -0.409  -0.405  -0.404  -0.402  -0.400  -0.398  -0.397
 -0.396  -0.396  -0.395  -0.393  -0.390  -0.389  -0.387  -0.384
 -0.381  -0.374  -0.374  -0.372  -0.364  -0.362  -0.359  -0.357
 -0.356  -0.355  -0.351  -0.350  -0.349  -0.346  -0.342  -0.342
 -0.338  -0.337  -0.331  -0.329  -0.329  -0.326  -0.321  -0.320
 -0.315  -0.314  -0.312  -0.309  -0.307  -0.304  -0.301  -0.298
 -0.296  -0.295  -0.293  -0.289  -0.289  -0.287  -0.286  -0.282
 -0.279  -0.278  -0.265  -0.263  -0.258  -0.253  -0.252  -0.249
 -0.247  -0.243  -0.238  -0.237  -0.200  -0.195

          Ground-State Mulliken Net Atomic Charges

     Atom                 Charge (a.u.)
  ----------------------------------------
      1 C                     0.259935
      2 C                    -0.131331
      3 N                    -0.462100
      4 C                    -0.063673
      5 C                     0.080936
      6 C                     0.017854
      7 C                     0.024447
      8 C                     0.065407
      9 C                     0.262703
     10 N                    -0.519624
     11 N                    -0.568635
     12 C                     0.170626
     13 C                     0.320261
     14 S                     0.610974
     15 N                    -0.527713
     16 C                    -0.217070
     17 S                     0.345326
     18 C                    -0.139628
     19 C                    -0.197476
     20 S                     0.283924
     21 C                     0.151451
     22 C                     0.053992
     23 C                    -0.325578
     24 C                    -0.071195
     25 N                    -0.430234
     26 S                     0.239379
     27 C                     0.131965
     28 C                    -0.307125
     29 C                    -0.215110
     30 H                     0.071006
     31 H                     0.100326
     32 H                     0.100432
     33 H                     0.116271
     34 H                     0.127046
     35 H                     0.129597
     36 H                     0.118676
     37 H                     0.141729
     38 H                     0.124533
     39 C                    -0.173948
     40 H                     0.096464
     41 H                     0.118867
     42 H                     0.097218
     43 C                    -0.186846
     44 H                     0.084104
     45 C                    -0.173805
     46 H                     0.090849
     47 H                     0.092378
     48 H                     0.095566
     49 C                    -0.180829
     50 H                     0.089653
     51 C                    -0.328446
     52 H                     0.097251
     53 H                     0.104396
     54 H                     0.106632
     55 H                     0.103087
     56 C                     0.294216
     57 C                    -0.145128
     58 N                    -0.477059
     59 C                    -0.084180
     60 C                     0.088788
     61 C                     0.038527
     62 C                     0.036462
     63 C                     0.072183
     64 C                     0.217635
     65 N                    -0.526043
     66 N                    -0.548998
     67 C                     0.202481
     68 C                     0.328822
     69 S                     0.613369
     70 N                    -0.569503
     71 C                    -0.241136
     72 S                     0.366124
     73 C                    -0.141184
     74 C                    -0.216941
     75 S                     0.309133
     76 C                     0.156858
     77 C                     0.046929
     78 C                    -0.320144
     79 C                    -0.082635
     80 N                    -0.410399
     81 S                     0.277847
     82 C                     0.106649
     83 C                    -0.293518
     84 C                    -0.218564
     85 H                     0.084037
     86 H                     0.100053
     87 H                     0.108464
     88 H                     0.085088
     89 H                     0.130906
     90 H                     0.108185
     91 H                     0.127253
     92 H                     0.124592
     93 H                     0.090667
     94 C                    -0.181909
     95 H                     0.121608
     96 H                     0.087724
     97 H                     0.120086
     98 C                    -0.183791
     99 H                     0.090944
    100 C                    -0.166786
    101 H                     0.088673
    102 H                     0.094933
    103 H                     0.095874
    104 C                    -0.186047
    105 H                     0.090964
    106 C                    -0.319016
    107 H                     0.087762
    108 H                     0.104596
    109 H                     0.107695
    110 H                     0.101961
  ----------------------------------------
  Sum of atomic charges =     0.000000

                    Cartesian Multipole Moments
 -----------------------------------------------------------------
    Charge (ESU x 10^10)
                 0.0000
    Dipole Moment (Debye)
         X       0.2228      Y       3.0707      Z       0.7682
       Tot       3.1731
    Quadrupole Moments (Debye-Ang)
        XX    -453.7458     XY      29.6812     YY    -400.6638
        XZ      -6.4708     YZ      -6.0230     ZZ    -446.2368

 Total job time:  94.33s(wall), 1017.52s(cpu)
        *  Thank you very much for using Q-Chem.  Have a nice day.  *
