 Q-Chem 4.4, Q-Chem, Inc., Pleasanton, CA (2016)
 Q-Chem 4.4.2 for Intel X86 Linux

User input:
--------------------------------------------------------------
$comment
SP
$end

$rem
MEM_STATIC 5000
MEM_TOTAL 20000
JOBTYPE SP
EXCHANGE B3LYP
BASIS 6-31g(d,p)
$end

$molecule
0 1
C           3.248000     -4.052000     -9.660000
C           3.530000     -3.363000     -8.483000
N           2.340000     -3.639000    -10.539000
C           2.804000     -2.187000     -8.279000
C           1.680000     -2.500000    -10.296000
C           1.799000     -1.624000     -9.181000
C           1.128000     -0.300000     -9.096000
C           1.871000      0.805000     -8.610000
C          -0.222000     -0.059000     -9.558000
N           1.325000      2.004000     -8.474000
N          -1.038000     -0.994000    -10.077000
C          -0.706000      1.221000     -9.376000
C           0.060000      2.259000     -8.852000
S          -2.450000     -0.222000    -10.441000
N          -1.994000      1.212000     -9.851000
C          -0.534000      3.624000     -8.667000
S          -2.220000      4.053000     -9.005000
C           0.170000      4.689000     -8.194000
C          -1.788000      5.782000     -8.944000
S           1.723000      4.680000     -7.343000
C          -0.523000      5.882000     -8.333000
C          -2.613000      6.881000     -9.127000
C           1.541000      6.458000     -7.376000
C           0.343000      6.961000     -7.931000
N          -3.793000      6.505000     -9.549000
S          -2.379000      8.613000     -8.813000
C          -4.429000      7.605000     -9.958000
C          -3.797000      8.795000     -9.747000
C           3.915000     -5.470000     -9.778000
H           4.187000     -3.778000     -7.724000
H           2.940000     -1.580000     -7.389000
H           0.986000     -2.164000    -11.065000
H           2.823000      0.674000     -8.098000
H           2.452000      6.940000     -7.046000
H           0.121000      8.020000     -8.000000
H          -5.410000      7.492000    -10.401000
H          -4.099000      9.786000    -10.059000
H           4.857000     -5.376000    -10.334000
C           3.057000     -6.585000    -10.301000
H           4.197000     -5.778000     -8.764000
H           2.473000     -6.459000    -11.221000
H           2.305000     -6.755000     -9.522000
C           3.955000     -7.834000    -10.518000
H           4.609000     -7.637000    -11.377000
C           3.101000     -9.123000    -10.919000
H           4.512000     -8.078000     -9.605000
H           2.396000     -9.008000    -11.752000
H           2.439000     -9.292000    -10.061000
C           4.025000    -10.357000    -11.145000
H           4.897000     -9.907000    -11.635000
C           3.376000    -11.431000    -12.054000
H           4.415000    -10.847000    -10.244000
H           2.967000    -11.079000    -13.009000
H           2.529000    -11.731000    -11.424000
H           4.034000    -12.302000    -12.160000
C           3.072000     -0.686000     -3.913000
C           2.740000      0.285000     -2.952000
N           2.433000     -0.690000     -5.047000
C           1.816000      1.318000     -3.234000
C           1.503000      0.250000     -5.319000
C           1.131000      1.296000     -4.430000
C           0.154000      2.393000     -4.730000
C           0.384000      3.728000     -4.414000
C          -1.101000      2.150000     -5.258000
N          -0.470000      4.736000     -4.524000
N          -1.548000      0.915000     -5.583000
C          -2.017000      3.154000     -5.482000
C          -1.672000      4.489000     -5.042000
S          -2.935000      1.115000     -6.363000
N          -3.157000      2.694000     -6.074000
C          -2.505000      5.606000     -5.481000
S          -4.029000      5.515000     -6.390000
C          -2.102000      6.960000     -5.327000
C          -4.263000      7.280000     -6.181000
S          -0.676000      7.728000     -4.592000
C          -3.117000      7.808000     -5.638000
C          -5.507000      8.042000     -6.270000
C          -1.457000      9.307000     -4.818000
C          -2.738000      9.177000     -5.340000
N          -6.600000      7.391000     -5.928000
S          -5.573000      9.780000     -6.608000
C          -7.681000      8.301000     -5.827000
C          -7.291000      9.554000     -6.290000
C           4.015000     -1.843000     -3.656000
H           3.327000      0.388000     -2.044000
H           1.867000      2.237000     -2.658000
H           1.136000      0.181000     -6.342000
H           1.305000      3.908000     -3.862000
H          -0.943000     10.253000     -4.706000
H          -3.276000     10.091000     -5.565000
H          -8.705000      7.997000     -5.654000
H          -7.953000     10.407000     -6.352000
H           4.343000     -1.797000     -2.610000
C           5.320000     -1.820000     -4.541000
H           3.506000     -2.806000     -3.791000
H           5.899000     -0.931000     -4.262000
H           4.944000     -1.755000     -5.569000
C           6.224000     -3.037000     -4.269000
H           7.238000     -2.732000     -4.555000
C           5.871000     -4.293000     -5.095000
H           6.350000     -3.312000     -3.215000
H           5.991000     -3.953000     -6.131000
H           4.857000     -4.668000     -4.911000
C           6.806000     -5.511000     -4.832000
H           7.855000     -5.303000     -5.073000
C           6.441000     -6.793000     -5.671000
H           6.847000     -5.680000     -3.749000
H           7.166000     -7.600000     -5.507000
H           6.336000     -6.401000     -6.690000
H           5.439000     -7.148000     -5.401000
$end

--------------------------------------------------------------

             Standard Nuclear Orientation (Angstroms)
    I     Atom           X                Y                Z
 ----------------------------------------------------------------
    1      C       7.1677357095    -1.3119272731    -0.9451342059
    2      C       6.5834244077    -0.0578922568    -0.7852890295
    3      N       6.4604165686    -2.4360875831    -1.0054436597
    4      C       5.1888570417    -0.0437428231    -0.7037436124
    5      C       5.1259298392    -2.3619924896    -0.9304430851
    6      C       4.3066638348    -1.2085440780    -0.7783839651
    7      C       2.8228710663    -1.2320032476    -0.8692172606
    8      C       2.1740124836    -0.2100000602    -1.6066194741
    9      C       2.0063366439    -2.2883771485    -0.3112112406
   10      N       0.8540667412    -0.1497635146    -1.6978762312
   11      N       2.4756748217    -3.3422029670     0.3806086919
   12      C       0.6414005006    -2.1406815794    -0.4558326212
   13      C       0.0578693147    -1.0888132722    -1.1571459743
   14      S       1.1579702760    -4.2441151631     0.7958593642
   15      N       0.0732861164    -3.2250023994     0.1655725654
   16      C      -1.4345801024    -0.9807002225    -1.2629396694
   17      S      -2.5904912543    -2.0786367002    -0.4888040870
   18      C      -2.0663126983     0.0015385623    -1.9627188466
   19      C      -3.8873399053    -1.4450635183    -1.5359691168
   20      S      -1.3932691452     1.5324183046    -2.5453942198
   21      C      -3.4236271271    -0.2434879141    -2.1058221915
   22      C      -5.2226006449    -1.8162787596    -1.5705089760
   23      C      -3.0210741982     1.7681716280    -3.2455142666
   24      C      -3.9813586041     0.7708578481    -2.9636329365
   25      N      -5.4253430617    -2.8735415952    -0.8269023536
   26      S      -6.6447790622    -1.0819752633    -2.3395232312
   27      C      -6.6459490589    -3.3274527830    -1.1199256174
   28      C      -7.3936512660    -2.5728431462    -1.9752329922
   29      C       8.7346138821    -1.3366782700    -0.8275877025
   30      H       7.1831225473     0.8324822466    -0.6193059429
   31      H       4.6348698160     0.8803346529    -0.5687474189
   32      H       4.5778566626    -3.2965154343    -1.0407864527
   33      H       2.6964938724     0.6950703366    -1.9123477443
   34      H      -3.0313503096     2.6267553678    -3.9042049097
   35      H      -5.0009141936     0.8097109332    -3.3304064874
   36      H      -6.9780265765    -4.2412599975    -0.6444680514
   37      H      -8.3675813891    -2.7895645592    -2.3937075367
   38      H       9.1690023333    -1.2644539035    -1.8332846321
   39      C       9.3401606452    -2.4529387094    -0.0274666185
   40      H       9.0325366064    -0.4182274701    -0.3077086986
   41      H       9.0435901731    -3.4942399506    -0.2037325545
   42      H       9.0406396974    -2.2558772376     1.0082452034
   43      C      10.8829981614    -2.3998306362    -0.2016100396
   44      H      11.1198694682    -2.7096321304    -1.2274370319
   45      C      11.6286805637    -3.4495080912     0.7437856424
   46      H      11.2695791569    -1.4027502615     0.0428073501
   47      H      11.2737464769    -4.4871300734     0.7050375290
   48      H      11.3637307585    -3.1391535177     1.7618478406
   49      C      13.1720772236    -3.3867009573     0.5398493433
   50      H      13.2566199301    -3.2260011800    -0.5418216382
   51      C      13.8840656180    -4.6975649288     0.9589748309
   52      H      13.6922489360    -2.5393581711     1.0039965101
   53      H      13.4800750259    -5.6272993922     0.5399337482
   54      H      13.6668245007    -4.6998968920     2.0346652413
   55      H      14.9706577272    -4.6063499885     0.8413380044
   56      C       3.5586883813     3.9746199162     0.9031453180
   57      C       2.4540315231     4.7783811425     1.2352403595
   58      N       3.3706475882     2.7023441528     0.7025261713
   59      C       1.1383280119     4.2594808606     1.2427081613
   60      C       2.1316804331     2.1695123324     0.7619790083
   61      C       0.9500610237     2.9080738851     1.0468007141
   62      C      -0.4450388639     2.3588816324     1.0515095462
   63      C      -1.5248765533     3.0120986320     0.4664974812
   64      C      -0.7885109260     1.2015302574     1.7263597053
   65      N      -2.8029175271     2.6664659402     0.5345365261
   66      N       0.1000727967     0.4442966460     2.4102275475
   67      C      -2.0812461168     0.7284729113     1.7743229574
   68      C      -3.1182187562     1.5450425147     1.1803938135
   69      S      -0.6655091312    -0.9003119575     2.8322240108
   70      N      -2.1738363563    -0.4632578408     2.4322506603
   71      C      -4.4461372401     0.9638819953     0.9982291886
   72      S      -5.0122348789    -0.6190782619     1.5734754726
   73      C      -5.4414247718     1.5817543056     0.1938178899
   74      C      -6.6794020210    -0.2161474373     1.0520711471
   75      S      -5.4921510727     3.1070357903    -0.7196744388
   76      C      -6.6377644191     0.9525579507     0.3314165653
   77      C      -7.9356517166    -0.8047256075     1.5119770504
   78      C      -7.2180423383     2.8217902889    -1.0266147311
   79      C      -7.6728299564     1.6782631327    -0.3817435305
   80      N      -7.9376234538    -1.2463176919     2.7531082051
   81      S      -9.4404044783    -0.7639166083     0.5774730365
   82      C      -9.2630362861    -1.5616823122     3.1412937022
   83      C     -10.1122891561    -1.4757261604     2.0422672682
   84      C       4.9938444950     4.4581580334     0.9247049699
   85      H       2.5546049418     5.8579613630     1.2987504760
   86      H       0.3052411700     4.9443605942     1.1168349540
   87      H       2.1205455547     1.1213858952     0.4665369901
   88      H      -1.2915186275     3.9962757571     0.0636520209
   89      H      -7.8009597901     3.3823521280    -1.7460823600
   90      H      -8.7037223386     1.3898477319    -0.5536227118
   91      H      -9.5148688702    -2.0338296107     4.0818139190
   92      H     -11.1675860580    -1.7100940405     2.0756909970
   93      H       5.0035782090     5.4994009032     1.2704426463
   94      C       5.7007005644     4.4426475080    -0.4848669228
   95      H       5.5963548278     3.8780379487     1.6354207966
   96      H       5.1813086738     5.1632005874    -1.1286357662
   97      H       5.5694401629     3.4127763523    -0.8377424103
   98      C       7.1674009925     4.9052532082    -0.4007549716
   99      H       7.4253585693     5.2798335484    -1.3988353578
  100      C       8.1724174492     3.7848391349    -0.0557401513
  101      H       7.3567047886     5.7790254610     0.2341490551
  102      H       8.0443350935     3.0715553243    -0.8792188188
  103      H       7.9858991790     3.3126656510     0.9163401622
  104      C       9.6559900161     4.2565916724     0.0023974607
  105      H      10.0104030104     4.6671391399    -0.9502767788
  106      C      10.6791012867     3.1138060019     0.3601043787
  107      H       9.7089767510     5.1297725245     0.6641214254
  108      H      11.7143915533     3.4748505102     0.3202179552
  109      H      10.3948032492     2.3037086820    -0.3225133461
  110      H      10.4720387241     2.7224658560     1.3635519286
 ----------------------------------------------------------------

   10   -5663.4547878556      6.29E-06 Convergence criterion met
 Total energy in the final basis set = -5663.4547878556

                    Orbital Energies (a.u.)
 --------------------------------------------------------------

 Alpha MOs
 -- Occupied --
-88.993 -88.983 -88.933 -88.928 -88.923 -88.919 -88.910 -88.910
-14.378 -14.376 -14.374 -14.366 -14.347 -14.346 -14.345 -14.333
-14.327 -14.318 -10.270 -10.262 -10.258 -10.257 -10.252 -10.250
-10.245 -10.240 -10.237 -10.237 -10.236 -10.235 -10.234 -10.233
-10.231 -10.230 -10.228 -10.227 -10.227 -10.226 -10.226 -10.226
-10.222 -10.221 -10.220 -10.219 -10.214 -10.214 -10.212 -10.208
-10.208 -10.207 -10.206 -10.204 -10.203 -10.200 -10.198 -10.187
-10.187 -10.187 -10.183 -10.182 -10.182 -10.181 -10.178 -10.176
-10.174 -10.173 -10.169 -10.168  -8.048  -8.039  -7.993  -7.989
 -7.980  -7.976  -7.969  -7.968  -6.013  -6.008  -6.006  -6.004
 -5.998  -5.997  -5.957  -5.954  -5.953  -5.950  -5.950  -5.946
 -5.944  -5.941  -5.941  -5.937  -5.936  -5.934  -5.933  -5.932
 -5.930  -5.930  -5.925  -5.925  -1.035  -1.033  -0.984  -0.963
 -0.962  -0.961  -0.948  -0.931  -0.909  -0.907  -0.892  -0.888
 -0.838  -0.836  -0.835  -0.826  -0.815  -0.809  -0.808  -0.805
 -0.803  -0.797  -0.793  -0.789  -0.779  -0.775  -0.764  -0.762
 -0.748  -0.745  -0.737  -0.736  -0.725  -0.718  -0.709  -0.703
 -0.695  -0.689  -0.677  -0.671  -0.655  -0.646  -0.643  -0.639
 -0.636  -0.630  -0.625  -0.615  -0.608  -0.606  -0.596  -0.595
 -0.591  -0.586  -0.584  -0.574  -0.573  -0.570  -0.569  -0.566
 -0.544  -0.542  -0.540  -0.536  -0.523  -0.520  -0.515  -0.513
 -0.510  -0.498  -0.496  -0.493  -0.488  -0.478  -0.475  -0.474
 -0.472  -0.469  -0.466  -0.462  -0.461  -0.458  -0.452  -0.450
 -0.446  -0.445  -0.443  -0.438  -0.436  -0.431  -0.427  -0.425
 -0.423  -0.421  -0.421  -0.416  -0.415  -0.414  -0.412  -0.410
 -0.408  -0.406  -0.405  -0.402  -0.402  -0.399  -0.397  -0.394
 -0.392  -0.391  -0.390  -0.386  -0.383  -0.382  -0.380  -0.378
 -0.376  -0.374  -0.369  -0.363  -0.363  -0.359  -0.358  -0.356
 -0.355  -0.348  -0.347  -0.345  -0.343  -0.340  -0.339  -0.333
 -0.331  -0.330  -0.329  -0.328  -0.326  -0.323  -0.320  -0.317
 -0.317  -0.311  -0.307  -0.303  -0.303  -0.299  -0.295  -0.294
 -0.292  -0.292  -0.290  -0.288  -0.286  -0.284  -0.281  -0.275
 -0.274  -0.270  -0.261  -0.259  -0.254  -0.252  -0.250  -0.241
 -0.238  -0.235  -0.232  -0.222  -0.196  -0.181

          Ground-State Mulliken Net Atomic Charges

     Atom                 Charge (a.u.)
  ----------------------------------------
      1 C                     0.273511
      2 C                    -0.115421
      3 N                    -0.486147
      4 C                    -0.122283
      5 C                     0.080064
      6 C                     0.058471
      7 C                     0.001226
      8 C                     0.043590
      9 C                     0.245311
     10 N                    -0.516982
     11 N                    -0.573042
     12 C                     0.231987
     13 C                     0.320852
     14 S                     0.618203
     15 N                    -0.582946
     16 C                    -0.238741
     17 S                     0.370468
     18 C                    -0.112151
     19 C                    -0.210259
     20 S                     0.293569
     21 C                     0.123454
     22 C                     0.070072
     23 C                    -0.289642
     24 C                    -0.087125
     25 N                    -0.423767
     26 S                     0.278288
     27 C                     0.128631
     28 C                    -0.317204
     29 C                    -0.235986
     30 H                     0.097266
     31 H                     0.117736
     32 H                     0.098539
     33 H                     0.125377
     34 H                     0.125518
     35 H                     0.113533
     36 H                     0.107096
     37 H                     0.130088
     38 H                     0.110398
     39 C                    -0.166438
     40 H                     0.102850
     41 H                     0.115564
     42 H                     0.093045
     43 C                    -0.187640
     44 H                     0.097930
     45 C                    -0.184270
     46 H                     0.092522
     47 H                     0.093485
     48 H                     0.089370
     49 C                    -0.176815
     50 H                     0.089616
     51 C                    -0.321807
     52 H                     0.093013
     53 H                     0.105387
     54 H                     0.103020
     55 H                     0.098795
     56 C                     0.303136
     57 C                    -0.150567
     58 N                    -0.490969
     59 C                    -0.075276
     60 C                     0.099962
     61 C                     0.037249
     62 C                     0.051023
     63 C                     0.059937
     64 C                     0.211035
     65 N                    -0.516765
     66 N                    -0.558303
     67 C                     0.215688
     68 C                     0.325513
     69 S                     0.609946
     70 N                    -0.571858
     71 C                    -0.238788
     72 S                     0.391364
     73 C                    -0.130662
     74 C                    -0.217768
     75 S                     0.285781
     76 C                     0.151010
     77 C                     0.052646
     78 C                    -0.313050
     79 C                    -0.080881
     80 N                    -0.410687
     81 S                     0.266088
     82 C                     0.105483
     83 C                    -0.294965
     84 C                    -0.218763
     85 H                     0.083361
     86 H                     0.102130
     87 H                     0.106998
     88 H                     0.093893
     89 H                     0.127649
     90 H                     0.104445
     91 H                     0.125609
     92 H                     0.121482
     93 H                     0.091729
     94 C                    -0.185950
     95 H                     0.120582
     96 H                     0.092620
     97 H                     0.117963
     98 C                    -0.183889
     99 H                     0.092329
    100 C                    -0.175040
    101 H                     0.090441
    102 H                     0.099843
    103 H                     0.097145
    104 C                    -0.186992
    105 H                     0.092745
    106 C                    -0.322638
    107 H                     0.090065
    108 H                     0.107120
    109 H                     0.107463
    110 H                     0.103153
  ----------------------------------------
  Sum of atomic charges =     0.000000

                    Cartesian Multipole Moments
 -----------------------------------------------------------------
    Charge (ESU x 10^10)
                 0.0000
    Dipole Moment (Debye)
         X      -4.7234      Y       2.7302      Z      -1.2902
       Tot       5.6062
    Quadrupole Moments (Debye-Ang)
        XX    -384.7174     XY      27.2582     YY    -426.6951
        XZ      15.0256     YZ     -11.9905     ZZ    -446.0026

 Total job time:  127.21s(wall), 1354.74s(cpu)
        *  Thank you very much for using Q-Chem.  Have a nice day.  *
