 Q-Chem 4.4, Q-Chem, Inc., Pleasanton, CA (2016)
 Q-Chem 4.4.2 for Intel X86 Linux

User input:
--------------------------------------------------------------
$comment
SP
$end

$rem
MEM_STATIC 5000
MEM_TOTAL 20000
JOBTYPE SP
EXCHANGE B3LYP
BASIS 6-31g(d,p)
$end

$molecule
0 1
C           5.260000    -21.881000     -3.850000
C           6.227000    -22.846000     -4.042000
N           5.564000    -20.671000     -3.291000
C           7.577000    -22.568000     -3.865000
C           6.863000    -20.408000     -3.065000
C           7.977000    -21.223000     -3.427000
C           9.434000    -20.822000     -3.166000
C          10.400000    -21.603000     -2.569000
C           9.842000    -19.518000     -3.467000
N          11.710000    -21.243000     -2.455000
N           9.046000    -18.572000     -3.880000
C          11.176000    -19.165000     -3.378000
C          12.062000    -20.072000     -2.860000
S          10.069000    -17.296000     -4.160000
N          11.494000    -17.922000     -3.704000
C          13.563000    -19.938000     -2.720000
S          14.470000    -20.597000     -1.394000
C          14.379000    -19.114000     -3.490000
C          15.973000    -19.818000     -1.987000
S          14.090000    -18.268000     -5.025000
C          15.708000    -19.142000     -3.138000
C          17.307000    -20.134000     -1.610000
C          15.791000    -17.926000     -5.103000
C          16.575000    -18.436000     -4.058000
N          18.116000    -19.173000     -1.564000
S          17.730000    -21.533000     -0.677000
C          19.233000    -19.432000     -0.863000
C          19.248000    -20.707000     -0.357000
C           3.717000    -22.283000     -3.984000
H           5.972000    -23.823000     -4.443000
H           8.310000    -23.313000     -4.161000
H           7.004000    -19.458000     -2.553000
H          10.089000    -22.596000     -2.249000
H          16.131000    -17.257000     -5.883000
H          17.638000    -18.263000     -3.932000
H          19.948000    -18.643000     -0.672000
H          20.007000    -21.149000      0.275000
H           3.597000    -23.353000     -3.771000
C           3.171000    -21.887000     -5.332000
H           3.238000    -21.653000     -3.225000
H           3.656000    -22.507000     -6.096000
H           3.343000    -20.827000     -5.556000
C           1.589000    -22.041000     -5.264000
H           1.238000    -23.006000     -4.879000
C           0.931000    -21.809000     -6.636000
H           1.241000    -21.276000     -4.560000
H           1.469000    -22.422000     -7.370000
H           1.054000    -20.755000     -6.915000
C          -0.628000    -21.942000     -6.664000
H          -0.874000    -22.966000     -6.360000
C          -1.236000    -21.503000     -8.026000
H          -1.115000    -21.376000     -5.860000
H          -0.802000    -22.080000     -8.852000
H          -1.009000    -20.441000     -8.186000
H          -2.327000    -21.610000     -8.060000
C           3.811000    -28.338000     -3.187000
C           5.129000    -28.201000     -3.638000
N           3.329000    -27.491000     -2.216000
C           6.002000    -27.281000     -3.027000
C           4.124000    -26.585000     -1.746000
C           5.431000    -26.355000     -2.111000
C           6.355000    -25.347000     -1.412000
C           7.748000    -25.538000     -1.277000
C           5.846000    -24.106000     -0.979000
N           8.562000    -24.575000     -0.727000
N           4.548000    -23.772000     -0.959000
C           6.649000    -23.141000     -0.404000
C           8.036000    -23.406000     -0.333000
S           4.356000    -22.295000     -0.249000
N           5.977000    -22.057000      0.006000
C           8.944000    -22.404000      0.318000
S           8.651000    -20.606000      0.672000
C          10.246000    -22.668000      0.741000
C          10.338000    -20.302000      0.827000
S          11.161000    -24.082000      0.801000
C          11.023000    -21.490000      0.883000
C          10.803000    -19.002000      1.332000
C          12.671000    -23.166000      0.914000
C          12.425000    -21.789000      1.005000
N          11.855000    -18.965000      2.150000
S          10.151000    -17.386000      0.843000
C          12.157000    -17.615000      2.457000
C          11.191000    -16.697000      2.062000
C           2.881000    -29.428000     -3.687000
H           5.490000    -28.830000     -4.447000
H           6.991000    -27.132000     -3.449000
H           3.631000    -25.985000     -0.982000
H           8.278000    -26.437000     -1.585000
H          13.559000    -23.775000      1.017000
H          13.236000    -21.072000      1.061000
H          13.067000    -17.410000      3.004000
H          11.370000    -15.635000      2.170000
H           3.426000    -30.375000     -3.585000
C           2.624000    -29.144000     -5.187000
H           2.021000    -29.457000     -3.006000
H           3.556000    -29.114000     -5.766000
H           2.134000    -28.164000     -5.234000
C           1.644000    -30.211000     -5.668000
H           2.124000    -31.178000     -5.860000
C           0.879000    -29.770000     -6.999000
H           0.812000    -30.310000     -4.960000
H           0.783000    -28.679000     -7.066000
H          -0.138000    -30.174000     -7.082000
C           1.706000    -30.108000     -8.225000
H           1.218000    -29.753000     -9.141000
C           1.874000    -31.644000     -8.474000
H           2.639000    -29.530000     -8.188000
H           0.882000    -32.085000     -8.629000
H           2.405000    -32.136000     -7.649000
H           2.486000    -31.707000     -9.382000
$end

--------------------------------------------------------------

             Standard Nuclear Orientation (Angstroms)
    I     Atom           X                Y                Z
 ----------------------------------------------------------------
    1      C       3.2552318825    -2.1122932142    -0.0987435071
    2      C       2.9533835389    -0.9172855681    -0.7184388379
    3      N       2.2784338791    -2.8944657085     0.4517733860
    4      C       1.6408040972    -0.5492783800    -0.9882886458
    5      C       1.0034506053    -2.5220491857     0.2435197299
    6      C       0.5494242331    -1.4401649379    -0.5686696122
    7      C      -0.9333030577    -1.1128310014    -0.7834794706
    8      C      -1.5228050317     0.1254719717    -0.6470273927
    9      C      -1.8240790810    -2.1556966558    -1.0599397811
   10      N      -2.8250291652     0.3890605661    -0.9526895575
   11      N      -1.5031772564    -3.4190632562    -1.0652172642
   12      C      -3.1367711940    -1.8824413740    -1.3979589631
   13      C      -3.5786492390    -0.5882729230    -1.3215337458
   14      S      -2.9027169883    -4.1750204807    -1.5373636544
   15      N      -3.9163564455    -2.9162699068    -1.6734483465
   16      C      -4.9397826223    -0.0413000710    -1.6939496586
   17      S      -5.7232714119     1.2545361597    -0.8441498117
   18      C      -5.8244936988    -0.6168205809    -2.6015808909
   19      C      -7.2087362850     1.0511534416    -1.8287962360
   20      S      -5.5968138227    -1.8711863521    -3.8385895352
   21      C      -7.0173613522     0.0541319847    -2.7350665320
   22      C      -8.2742624263     1.9814702002    -1.9726912354
   23      C      -7.1702443642    -1.4780992127    -4.4600779356
   24      C      -7.8503361208    -0.4360798787    -3.8131993456
   25      N      -9.4259390851     1.4946472390    -2.1021604519
   26      S      -8.1968797703     3.6178314089    -1.4044017677
   27      C     -10.4186849540     2.3683622085    -1.8628932541
   28      C      -9.9493438086     3.6157959696    -1.5380642208
   29      C       4.7784546738    -2.4418787364     0.2639887796
   30      H       3.7373134408    -0.2767000425    -1.1127218496
   31      H       1.4566852711     0.3294317024    -1.5997613345
   32      H       0.3000594334    -3.1580847003     0.7775840364
   33      H      -0.8672774236     0.9429574439    -0.3517799411
   34      H      -7.5781794091    -2.1202070678    -5.2300438449
   35      H      -8.8584984504    -0.1097922366    -4.0432408457
   36      H     -11.4458407719     2.0295156393    -1.8438951422
   37      H     -10.5360874772     4.4813856313    -1.2599358243
   38      H       5.3375127564    -1.5051492483     0.3850710930
   39      C       5.3900757099    -3.3634491852    -0.7600540008
   40      H       4.6865814842    -2.9945717370     1.2065977993
   41      H       5.4733885739    -2.8182491549    -1.7082822927
   42      H       4.7948994616    -4.2725752457    -0.9104369779
   43      C       6.7760268507    -3.8730985668    -0.1680565827
   44      H       7.4352544045    -3.0799169115     0.2046804481
   45      C       7.5663890600    -4.7048703424    -1.1940464907
   46      H       6.5233952214    -4.5028133794     0.6930946901
   47      H       7.5941903888    -4.1358553174    -2.1318193776
   48      H       7.0292336865    -5.6434725285    -1.3794542605
   49      C       8.9473393993    -5.2480088186    -0.6971252133
   50      H       9.5671484875    -4.3804895206    -0.4426552508
   51      C       9.5940318629    -6.2365643587    -1.7080534015
   52      H       8.8814027859    -5.7366778864     0.2830767584
   53      H       9.7153632985    -5.7661588161    -2.6916988194
   54      H       8.9354217351    -7.1078960779    -1.8175373481
   55      H      10.5707576536    -6.6082530942    -1.3752768794
   56      C       7.3961377902     3.0765781420     0.3019200828
   57      C       6.3374645631     3.3916650812    -0.5578619936
   58      N       7.1490419123     2.3884528240     1.4672531570
   59      C       5.0081313509     3.1133533633    -0.1873680010
   60      C       5.9277739505     2.0532780269     1.7316835278
   61      C       4.8119740965     2.3050060130     0.9661786573
   62      C       3.3752964432     1.9941252777     1.4108712354
   63      C       2.2618030217     2.7776910409     1.0349562251
   64      C       3.0988904470     0.8125173324     2.1278464016
   65      N       0.9769574676     2.4214990000     1.3737247773
   66      N       4.0247116514    -0.0158023673     2.6313357984
   67      C       1.8159818558     0.4564475114     2.4939322237
   68      C       0.7592167662     1.2854058585     2.0522189636
   69      S       3.2985537744    -1.1988136372     3.5233403236
   70      N       1.7575710695    -0.6625194957     3.2282625425
   71      C      -0.6489505976     0.9606538464     2.4570273207
   72      S      -1.3535037041    -0.6361549158     3.0877219355
   73      C      -1.7241652081     1.8441987147     2.3728192031
   74      C      -2.9561535795    -0.1555973777     2.6840044236
   75      S      -1.8313390868     3.4736316232     1.9560660909
   76      C      -2.9772309374     1.1798345866     2.3679629490
   77      C      -4.0976297368    -0.9628026348     3.1386491807
   78      C      -3.5675963645     3.3363643714     1.6422295615
   79      C      -4.0432760728     2.0578565990     1.9648325543
   80      N      -5.2071905679    -0.3437947715     3.5422591747
   81      S      -4.1992332153    -2.7691022542     3.0872739113
   82      C      -6.1853344815    -1.3138668656     3.8741441192
   83      C      -5.7127328395    -2.6192631226     3.9411762021
   84      C       8.8265755921     3.5078031452     0.0356632675
   85      H       6.5407236317     3.8812334615    -1.5062561902
   86      H       4.2128333471     3.2879505710    -0.9052975937
   87      H       5.8607600699     1.5221511339     2.6804502870
   88      H       2.3250645299     3.7025512465     0.4652224437
   89      H      -4.0484316856     4.2645723773     1.3642704065
   90      H      -5.0823472662     1.7869478190     1.8168951079
   91      H      -7.1871679639    -0.9705803146     4.0928174315
   92      H      -6.3990730094    -3.4413836541     4.0980328339
   93      H       8.7960789044     4.5867196474    -0.1624456249
   94      C       9.2875567067     2.7652929906    -1.2421786954
   95      H       9.3902259792     3.3495791849     0.9638148820
   96      H       8.6370132037     2.9791117554    -2.0999896807
   97      H       9.2420627361     1.6948472793    -1.0081161446
   98      C      10.7441756694     3.1604972696    -1.4709247890
   99      H      10.8525520026     4.1536604410    -1.9228478857
  100      C      11.5139772621     2.1125808687    -2.3985797489
  101      H      11.3109533397     3.0819190329    -0.5350414986
  102      H      11.0893053692     1.1050066224    -2.3067433636
  103      H      12.5831622458     2.0178102787    -2.1699840231
  104      C      11.2922003468     2.4357391911    -3.8640601133
  105      H      11.7649873884     1.6857916427    -4.5100292210
  106      C      11.9496884301     3.7792660907    -4.3246748008
  107      H      10.2219806113     2.3319714485    -4.0872281515
  108      H      13.0338662982     3.7085570775    -4.1759179999
  109      H      11.5294726588     4.6429758691    -3.7935682916
  110      H      11.6961575208     3.8552573071    -5.3890640214
 ----------------------------------------------------------------

   10   -5663.4892695370      6.13E-06 Convergence criterion met
 Total energy in the final basis set = -5663.4892695370

                    Orbital Energies (a.u.)
 --------------------------------------------------------------

 Alpha MOs
 -- Occupied --
-88.987 -88.984 -88.927 -88.920 -88.920 -88.920 -88.903 -88.903
-14.390 -14.380 -14.378 -14.371 -14.351 -14.347 -14.342 -14.331
-14.330 -14.324 -10.274 -10.264 -10.255 -10.252 -10.247 -10.247
-10.246 -10.246 -10.244 -10.243 -10.237 -10.233 -10.232 -10.231
-10.230 -10.229 -10.229 -10.228 -10.226 -10.226 -10.225 -10.225
-10.224 -10.224 -10.223 -10.221 -10.220 -10.220 -10.216 -10.215
-10.215 -10.213 -10.208 -10.201 -10.198 -10.197 -10.195 -10.194
-10.189 -10.189 -10.185 -10.182 -10.181 -10.179 -10.178 -10.177
-10.176 -10.175 -10.175 -10.173  -8.042  -8.040  -7.987  -7.982
 -7.979  -7.979  -7.965  -7.964  -6.007  -6.005  -6.001  -6.000
 -5.999  -5.998  -5.952  -5.948  -5.945  -5.944  -5.943  -5.943
 -5.942  -5.940  -5.939  -5.939  -5.936  -5.935  -5.929  -5.928
 -5.925  -5.925  -5.921  -5.919  -1.053  -1.027  -0.989  -0.971
 -0.955  -0.952  -0.944  -0.932  -0.923  -0.908  -0.907  -0.890
 -0.842  -0.839  -0.828  -0.827  -0.813  -0.807  -0.805  -0.803
 -0.801  -0.801  -0.793  -0.791  -0.785  -0.780  -0.768  -0.763
 -0.747  -0.745  -0.738  -0.737  -0.720  -0.719  -0.706  -0.705
 -0.692  -0.690  -0.673  -0.673  -0.659  -0.655  -0.644  -0.641
 -0.633  -0.632  -0.623  -0.620  -0.613  -0.609  -0.598  -0.597
 -0.589  -0.588  -0.584  -0.580  -0.578  -0.575  -0.571  -0.556
 -0.554  -0.546  -0.541  -0.536  -0.520  -0.519  -0.509  -0.506
 -0.503  -0.502  -0.500  -0.495  -0.489  -0.488  -0.481  -0.474
 -0.473  -0.472  -0.467  -0.466  -0.462  -0.461  -0.452  -0.447
 -0.444  -0.440  -0.439  -0.435  -0.434  -0.431  -0.427  -0.426
 -0.425  -0.423  -0.421  -0.420  -0.416  -0.414  -0.412  -0.411
 -0.408  -0.407  -0.405  -0.404  -0.400  -0.399  -0.397  -0.395
 -0.394  -0.392  -0.390  -0.387  -0.386  -0.384  -0.382  -0.379
 -0.378  -0.377  -0.375  -0.372  -0.370  -0.364  -0.360  -0.358
 -0.352  -0.351  -0.349  -0.349  -0.343  -0.341  -0.341  -0.340
 -0.337  -0.335  -0.330  -0.329  -0.329  -0.326  -0.323  -0.322
 -0.318  -0.312  -0.311  -0.299  -0.299  -0.297  -0.296  -0.294
 -0.293  -0.292  -0.288  -0.287  -0.286  -0.283  -0.279  -0.275
 -0.274  -0.273  -0.269  -0.263  -0.252  -0.250  -0.247  -0.246
 -0.244  -0.241  -0.233  -0.230  -0.192  -0.189

          Ground-State Mulliken Net Atomic Charges

     Atom                 Charge (a.u.)
  ----------------------------------------
      1 C                     0.243488
      2 C                    -0.112572
      3 N                    -0.480594
      4 C                    -0.093048
      5 C                     0.101707
      6 C                     0.021560
      7 C                     0.045326
      8 C                     0.046890
      9 C                     0.262650
     10 N                    -0.508610
     11 N                    -0.557831
     12 C                     0.212615
     13 C                     0.289274
     14 S                     0.585363
     15 N                    -0.537944
     16 C                    -0.231380
     17 S                     0.321032
     18 C                    -0.103802
     19 C                    -0.238192
     20 S                     0.263554
     21 C                     0.150236
     22 C                     0.036926
     23 C                    -0.311046
     24 C                    -0.044043
     25 N                    -0.396152
     26 S                     0.247332
     27 C                     0.122035
     28 C                    -0.318277
     29 C                    -0.220855
     30 H                     0.091710
     31 H                     0.102877
     32 H                     0.114657
     33 H                     0.127416
     34 H                     0.126112
     35 H                     0.120695
     36 H                     0.115211
     37 H                     0.128575
     38 H                     0.120862
     39 C                    -0.179614
     40 H                     0.113297
     41 H                     0.091185
     42 H                     0.113500
     43 C                    -0.185314
     44 H                     0.092393
     45 C                    -0.167881
     46 H                     0.096150
     47 H                     0.089884
     48 H                     0.089304
     49 C                    -0.184420
     50 H                     0.088872
     51 C                    -0.318001
     52 H                     0.092613
     53 H                     0.104338
     54 H                     0.104127
     55 H                     0.100378
     56 C                     0.243467
     57 C                    -0.112669
     58 N                    -0.473273
     59 C                    -0.096304
     60 C                     0.091646
     61 C                     0.041182
     62 C                     0.036337
     63 C                     0.036028
     64 C                     0.262525
     65 N                    -0.538434
     66 N                    -0.585469
     67 C                     0.257053
     68 C                     0.309163
     69 S                     0.621285
     70 N                    -0.592253
     71 C                    -0.230353
     72 S                     0.309957
     73 C                    -0.096247
     74 C                    -0.234516
     75 S                     0.276466
     76 C                     0.141190
     77 C                     0.052595
     78 C                    -0.312938
     79 C                    -0.027673
     80 N                    -0.408269
     81 S                     0.260910
     82 C                     0.095829
     83 C                    -0.289187
     84 C                    -0.223940
     85 H                     0.084180
     86 H                     0.099943
     87 H                     0.115747
     88 H                     0.117151
     89 H                     0.136100
     90 H                     0.126560
     91 H                     0.119005
     92 H                     0.133225
     93 H                     0.108671
     94 C                    -0.179946
     95 H                     0.125133
     96 H                     0.101637
     97 H                     0.112841
     98 C                    -0.176403
     99 H                     0.096136
    100 C                    -0.181033
    101 H                     0.098483
    102 H                     0.087832
    103 H                     0.085689
    104 C                    -0.180792
    105 H                     0.088079
    106 C                    -0.313772
    107 H                     0.088258
    108 H                     0.106797
    109 H                     0.100852
    110 H                     0.100954
  ----------------------------------------
  Sum of atomic charges =     0.000000

                    Cartesian Multipole Moments
 -----------------------------------------------------------------
    Charge (ESU x 10^10)
                 0.0000
    Dipole Moment (Debye)
         X      -1.0783      Y       0.7421      Z      -2.2081
       Tot       2.5669
    Quadrupole Moments (Debye-Ang)
        XX    -400.6230     XY       3.1764     YY    -428.5709
        XZ     -13.1511     YZ      -9.5314     ZZ    -446.7715

 Total job time:  113.93s(wall), 1226.39s(cpu)
        *  Thank you very much for using Q-Chem.  Have a nice day.  *
