 Q-Chem 4.4, Q-Chem, Inc., Pleasanton, CA (2016)
 Q-Chem 4.4.2 for Intel X86 Linux

User input:
--------------------------------------------------------------
$comment
SP
$end

$rem
MEM_STATIC 5000
MEM_TOTAL 20000
JOBTYPE SP
EXCHANGE B3LYP
BASIS 6-31g(d,p)
$end

$molecule
0 1
C           8.111000     18.327000     -7.223000
C           6.856000     17.759000     -7.459000
N           9.054000     17.483000     -6.760000
C           6.429000     16.479000     -7.091000
C           8.666000     16.236000     -6.415000
C           7.338000     15.606000     -6.576000
C           6.970000     14.180000     -6.374000
C           5.933000     13.913000     -5.547000
C           7.667000     13.161000     -6.971000
N           5.461000     12.693000     -5.328000
N           8.703000     13.276000     -7.830000
C           7.147000     11.816000     -6.867000
C           6.000000     11.634000     -5.971000
S           8.966000     11.698000     -8.381000
N           7.826000     10.901000     -7.625000
C           5.338000     10.314000     -5.740000
S           5.965000      8.753000     -6.273000
C           4.227000     10.074000     -4.926000
C           4.618000      7.831000     -5.506000
S           3.105000     11.272000     -4.325000
C           3.828000      8.714000     -4.870000
C           4.384000      6.489000     -5.478000
C           1.973000      9.895000     -3.995000
C           2.547000      8.632000     -4.221000
N           5.002000      5.858000     -6.411000
S           3.572000      5.504000     -4.246000
C           4.982000      4.496000     -6.197000
C           4.221000      4.070000     -5.182000
C           8.588000     19.778000     -7.482000
H           6.059000     18.416000     -7.795000
H           5.376000     16.255000     -7.237000
H           9.496000     15.677000     -5.985000
H           5.312000     14.687000     -5.098000
H           1.066000     10.091000     -3.439000
H           2.071000      7.682000     -4.003000
H           5.597000      3.869000     -6.829000
H           4.117000      3.103000     -4.709000
H           9.254000     19.902000     -8.345000
C           9.151000     20.386000     -6.143000
H           7.640000     20.284000     -7.704000
H          10.171000     20.025000     -5.964000
H           8.485000     20.145000     -5.304000
C           9.200000     21.944000     -6.140000
H           8.169000     22.313000     -6.204000
C           9.999000     22.634000     -7.277000
H           9.427000     22.388000     -5.163000
H           9.781000     22.060000     -8.186000
H          11.077000     22.496000     -7.129000
C           9.588000     24.145000     -7.367000
H          10.033000     24.534000     -8.291000
C           9.915000     25.048000     -6.085000
H           8.511000     24.285000     -7.524000
H          10.984000     25.236000     -5.923000
H           9.562000     24.518000     -5.192000
H           9.466000     26.049000     -6.075000
C           4.668000      6.150000    -10.428000
C           4.651000      4.826000     -9.958000
N           3.674000      6.606000    -11.190000
C           3.669000      3.888000    -10.331000
C           2.661000      5.682000    -11.516000
C           2.682000      4.327000    -11.258000
C           1.600000      3.379000    -11.798000
C           0.257000      3.791000    -12.027000
C           1.738000      1.974000    -12.088000
N          -0.658000      3.112000    -12.619000
N           2.916000      1.353000    -11.892000
C           0.761000      1.169000    -12.533000
C          -0.441000      1.812000    -12.930000
S           2.728000     -0.199000    -12.284000
N           1.157000     -0.093000    -12.718000
C          -1.486000      0.984000    -13.632000
S          -1.196000     -0.501000    -14.583000
C          -2.801000      1.270000    -13.598000
C          -2.971000     -0.729000    -14.942000
S          -3.697000      2.449000    -12.702000
C          -3.568000      0.366000    -14.370000
C          -3.546000     -1.758000    -15.813000
C          -5.119000      1.741000    -13.284000
C          -4.894000      0.675000    -14.178000
N          -2.857000     -2.835000    -15.891000
S          -4.982000     -1.629000    -16.784000
C          -3.519000     -3.708000    -16.784000
C          -4.609000     -3.189000    -17.408000
C           5.806000      7.103000    -10.115000
H           5.517000      4.620000     -9.337000
H           3.681000      2.864000     -9.968000
H           1.864000      6.104000    -12.127000
H           0.071000      4.851000    -11.856000
H          -6.092000      2.090000    -12.965000
H          -5.607000      0.006000    -14.647000
H          -3.075000     -4.684000    -16.933000
H          -5.228000     -3.616000    -18.186000
H           5.647000      8.141000    -10.431000
C           7.267000      6.673000    -10.580000
H           5.851000      7.174000     -9.021000
H           7.447000      7.095000    -11.577000
H           7.344000      5.585000    -10.699000
C           8.354000      7.164000     -9.565000
H           9.303000      6.859000    -10.023000
C           8.317000      6.624000     -8.085000
H           8.317000      8.260000     -9.529000
H           8.410000      5.531000     -8.111000
H           7.364000      6.943000     -7.645000
C           9.525000      7.098000     -7.249000
H          10.510000      7.238000     -7.710000
C           9.526000      6.321000     -5.900000
H           9.302000      8.161000     -7.092000
H          10.106000      6.849000     -5.133000
H          10.118000      5.409000     -6.044000
H           8.562000      6.020000     -5.473000
$end

--------------------------------------------------------------

             Standard Nuclear Orientation (Angstroms)
    I     Atom           X                Y                Z
 ----------------------------------------------------------------
    1      C      11.4392839116     2.6691626387    -0.5069306269
    2      C      10.3035809658     3.1226790105     0.1697130898
    3      N      11.3747947958     1.4053405603    -0.9701248713
    4      C       9.2059093423     2.3580651914     0.5779234700
    5      C      10.3137952671     0.6548547407    -0.6018463968
    6      C       9.1207999091     1.0615025621     0.1713318655
    7      C       7.8738216292     0.2872432109     0.4064310500
    8      C       7.4669718732     0.1310361309     1.6873134116
    9      C       7.1695393579    -0.2810565877    -0.6239090983
   10      N       6.3424033575    -0.4811650243     2.0332908661
   11      N       7.4422397135    -0.1927291168    -1.9438465111
   12      C       5.8802948549    -0.8688849290    -0.3365983734
   13      C       5.5145744383    -0.9636359061     1.0807300393
   14      S       6.0999835042    -0.8968362442    -2.6958009127
   15      N       5.1929162591    -1.2651370918    -1.4516431660
   16      C       4.2240457731    -1.5456628196     1.5600894412
   17      S       3.0742717222    -2.4354924803     0.5600085411
   18      C       3.7991618167    -1.6404071097     2.8886277896
   19      C       1.9727493068    -2.7789707226     1.9461734178
   20      S       4.4474997243    -0.7550992656     4.2492074377
   21      C       2.5378183135    -2.2677424573     3.0541570271
   22      C       0.7938718840    -3.4615227872     1.9757487671
   23      C       2.9244140061    -1.1954046168     5.1282945168
   24      C       2.0998194338    -2.0794604001     4.4112100284
   25      N       0.2426029548    -3.5500269098     0.8186646785
   26      S       0.0629087041    -4.4078202631     3.2863237999
   27      C      -0.7838729216    -4.4706719406     0.8186172644
   28      C      -1.1199242072    -4.9787395911     2.0101535820
   29      C      12.7373698798     3.4390474727    -0.8565892623
   30      H      10.3328028305     4.1228282452     0.5923259045
   31      H       8.4747141069     2.8529576199     1.2109606032
   32      H      10.4128729968    -0.3644972284    -0.9725027964
   33      H       7.9569549478     0.6118795464     2.5329044454
   34      H       2.8532490542    -0.9750949455     6.1849875651
   35      H       1.1899231098    -2.5314298101     4.7912262542
   36      H      -1.2246671458    -4.7464746253    -0.1302827994
   37      H      -1.7752948157    -5.7908303738     2.2941111949
   38      H      12.8406917633     3.7224168339    -1.9114482072
   39      C      13.9758612011     2.6586175029    -0.2763976480
   40      H      12.6149487111     4.3550947025    -0.2650704288
   41      H      14.2333404604     1.8180620952    -0.9320904402
   42      H      13.7698720324     2.3222080713     0.7482755471
   43      C      15.2518907053     3.5411654298    -0.1259587531
   44      H      15.0371540288     4.3189253273     0.6171399629
   45      C      15.7739880576     4.2615494097    -1.3970729400
   46      H      16.0688438204     3.0649568947     0.4299252626
   47      H      14.8814019832     4.6141513915    -1.9283383559
   48      H      16.2268981268     3.5414711935    -2.0894542164
   49      C      16.7609041274     5.4085244585    -0.9840512595
   50      H      16.9504850399     5.9971299501    -1.8899898076
   51      C      18.1041004514     4.9558896317    -0.2378560111
   52      H      16.3068247388     6.1349792828    -0.2983010886
   53      H      18.8197238778     4.4217294264    -0.8757470572
   54      H      17.8335969548     4.2581237372     0.5639598123
   55      H      18.6993824344     5.7609535939     0.2107121304
   56      C      -1.1313235744    -0.6595736254    -1.6492726593
   57      C      -2.0334155298    -1.7221338231    -1.4721824839
   58      N      -1.5106699741     0.5935022449    -1.3992463164
   59      C      -3.3866114891    -1.5357071804    -1.1295415600
   60      C      -2.8503237061     0.7739402284    -1.0005095456
   61      C      -3.8358784067    -0.1913112041    -0.9992430728
   62      C      -5.3047488403     0.1459413243    -0.6997294978
   63      C      -5.6922207713     1.2114766400     0.1606971369
   64      C      -6.4729499813    -0.5596919283    -1.1629322687
   65      N      -6.8846821921     1.6542255338     0.3360230533
   66      N      -6.3434249518    -1.6427401082    -1.9515835902
   67      C      -7.7429190821    -0.2524528201    -0.8573809418
   68      C      -7.9387051533     0.9832263097    -0.1860934456
   69      S      -7.8208942698    -2.2044054909    -2.2667476935
   70      N      -8.6361750818    -1.0718801316    -1.4180212900
   71      C      -9.3521399933     1.4746648001    -0.0097325567
   72      S     -10.7513214906     1.0651900014    -1.0433415384
   73      C      -9.7326280807     2.2854769672     0.9952497541
   74      C     -11.9044464308     2.0584035930    -0.0357108353
   75      S      -8.8860478376     2.8579816292     2.3921081234
   76      C     -11.1007880052     2.6363255343     0.9144246102
   77      C     -13.3178846611     2.3020051315    -0.3373027111
   78      C     -10.3382216765     3.5340376419     2.9363611982
   79      C     -11.4109561234     3.3657888971     2.0379458342
   80      N     -13.8851595235     1.3743121436    -1.0142952892
   81      S     -14.2446680128     3.7206565565     0.0500972806
   82      C     -15.2223931393     1.7669555638    -1.2497934873
   83      C     -15.5467442215     3.0177444846    -0.8288891618
   84      C       0.2861132427    -0.8780913548    -2.1435851835
   85      H      -1.5647189895    -2.6749886320    -1.6967359659
   86      H      -4.0725785509    -2.3699124944    -1.0110523868
   87      H      -3.1092021015     1.8115829419    -0.7934019030
   88      H      -4.8668951673     1.8156306163     0.5365596388
   89      H     -10.4032799603     4.0275473050     3.8968332864
   90      H     -12.4553412695     3.6340342071     2.1528158482
   91      H     -15.8501447331     1.0672845152    -1.7867305042
   92      H     -16.4637669225     3.5758815321    -0.9642642039
   93      H       0.9307059055     0.0088304742    -2.1223491688
   94      C       0.4644061989    -1.5731214649    -3.5651303878
   95      H       0.7594683839    -1.5541781129    -1.4205750827
   96      H       0.5286864113    -0.7847872391    -4.3259787319
   97      H      -0.4162427287    -2.1714764591    -3.8302016371
   98      C       1.7399817287    -2.4812607961    -3.5977650788
   99      H       1.7788406659    -2.8486736165    -4.6306676891
  100      C       1.8229908182    -3.7175602986    -2.6240905793
  101      H       2.6160263104    -1.8457706859    -3.4172679577
  102      H       0.9794786826    -4.3859905719    -2.8377778436
  103      H       1.7869870578    -3.3285217733    -1.5989453432
  104      C       3.0775606770    -4.5831817861    -2.8682010249
  105      H       3.4899072308    -4.7072056742    -3.8766326759
  106      C       2.9408462476    -5.8938337705    -2.0393273670
  107      H       3.8827251292    -3.9496613257    -2.4748703356
  108      H       3.9165806034    -6.3663044011    -1.8714376112
  109      H       2.4363857484    -6.6342293044    -2.6720026851
  110      H       2.3968124834    -5.8528055363    -1.0882385450
 ----------------------------------------------------------------

    9   -5663.4684197896      9.96E-06 Convergence criterion met
 Total energy in the final basis set = -5663.4684197896

                    Orbital Energies (a.u.)
 --------------------------------------------------------------

 Alpha MOs
 -- Occupied --
-88.992 -88.991 -88.930 -88.927 -88.926 -88.918 -88.915 -88.911
-14.397 -14.385 -14.377 -14.373 -14.354 -14.349 -14.342 -14.340
-14.327 -14.324 -10.276 -10.268 -10.267 -10.266 -10.264 -10.258
-10.247 -10.247 -10.245 -10.238 -10.237 -10.237 -10.236 -10.235
-10.235 -10.234 -10.232 -10.231 -10.230 -10.229 -10.229 -10.229
-10.226 -10.223 -10.221 -10.221 -10.220 -10.220 -10.216 -10.216
-10.211 -10.210 -10.209 -10.207 -10.197 -10.195 -10.194 -10.193
-10.191 -10.186 -10.184 -10.181 -10.180 -10.176 -10.176 -10.175
-10.175 -10.174 -10.173 -10.170  -8.048  -8.046  -7.990  -7.989
 -7.984  -7.975  -7.974  -7.973  -6.013  -6.011  -6.007  -6.006
 -6.005  -6.004  -5.954  -5.953  -5.951  -5.950  -5.949  -5.946
 -5.946  -5.945  -5.941  -5.940  -5.938  -5.937  -5.936  -5.935
 -5.933  -5.932  -5.930  -5.929  -1.044  -1.038  -0.984  -0.977
 -0.969  -0.967  -0.936  -0.923  -0.915  -0.915  -0.908  -0.897
 -0.844  -0.840  -0.840  -0.829  -0.816  -0.816  -0.810  -0.804
 -0.800  -0.797  -0.795  -0.790  -0.780  -0.772  -0.769  -0.761
 -0.751  -0.750  -0.738  -0.737  -0.721  -0.718  -0.710  -0.702
 -0.694  -0.687  -0.683  -0.678  -0.658  -0.650  -0.649  -0.643
 -0.642  -0.632  -0.625  -0.622  -0.616  -0.607  -0.606  -0.599
 -0.595  -0.593  -0.589  -0.582  -0.580  -0.575  -0.561  -0.557
 -0.550  -0.547  -0.542  -0.539  -0.527  -0.524  -0.523  -0.519
 -0.509  -0.503  -0.502  -0.494  -0.488  -0.485  -0.480  -0.475
 -0.472  -0.469  -0.467  -0.464  -0.455  -0.452  -0.450  -0.447
 -0.444  -0.441  -0.438  -0.438  -0.435  -0.433  -0.433  -0.432
 -0.429  -0.423  -0.421  -0.417  -0.416  -0.415  -0.412  -0.410
 -0.408  -0.406  -0.402  -0.400  -0.399  -0.398  -0.398  -0.397
 -0.396  -0.394  -0.393  -0.390  -0.388  -0.383  -0.382  -0.381
 -0.377  -0.377  -0.373  -0.369  -0.363  -0.361  -0.360  -0.360
 -0.356  -0.352  -0.351  -0.350  -0.345  -0.342  -0.340  -0.339
 -0.335  -0.333  -0.331  -0.329  -0.329  -0.324  -0.321  -0.317
 -0.313  -0.311  -0.309  -0.306  -0.305  -0.304  -0.297  -0.297
 -0.296  -0.293  -0.292  -0.291  -0.290  -0.287  -0.286  -0.279
 -0.276  -0.271  -0.267  -0.261  -0.259  -0.258  -0.248  -0.246
 -0.245  -0.241  -0.239  -0.226  -0.202  -0.191

          Ground-State Mulliken Net Atomic Charges

     Atom                 Charge (a.u.)
  ----------------------------------------
      1 C                     0.260583
      2 C                    -0.131582
      3 N                    -0.461593
      4 C                    -0.063345
      5 C                     0.081147
      6 C                     0.016712
      7 C                     0.025527
      8 C                     0.066035
      9 C                     0.262586
     10 N                    -0.519828
     11 N                    -0.567271
     12 C                     0.172186
     13 C                     0.323052
     14 S                     0.616532
     15 N                    -0.535763
     16 C                    -0.229132
     17 S                     0.370403
     18 C                    -0.143170
     19 C                    -0.213443
     20 S                     0.289271
     21 C                     0.158409
     22 C                     0.066182
     23 C                    -0.307929
     24 C                    -0.077779
     25 N                    -0.443546
     26 S                     0.242197
     27 C                     0.138878
     28 C                    -0.304467
     29 C                    -0.215089
     30 H                     0.072042
     31 H                     0.101596
     32 H                     0.100218
     33 H                     0.117874
     34 H                     0.129961
     35 H                     0.111458
     36 H                     0.116178
     37 H                     0.138110
     38 H                     0.124766
     39 C                    -0.174152
     40 H                     0.096855
     41 H                     0.118833
     42 H                     0.097304
     43 C                    -0.186743
     44 H                     0.084261
     45 C                    -0.174796
     46 H                     0.090946
     47 H                     0.092551
     48 H                     0.095695
     49 C                    -0.180246
     50 H                     0.089748
     51 C                    -0.328827
     52 H                     0.097326
     53 H                     0.104459
     54 H                     0.106650
     55 H                     0.103261
     56 C                     0.295770
     57 C                    -0.110088
     58 N                    -0.496304
     59 C                    -0.061901
     60 C                     0.037616
     61 C                     0.066569
     62 C                     0.042907
     63 C                     0.055773
     64 C                     0.190751
     65 N                    -0.490920
     66 N                    -0.552669
     67 C                     0.257225
     68 C                     0.258908
     69 S                     0.609136
     70 N                    -0.574651
     71 C                    -0.234362
     72 S                     0.335627
     73 C                    -0.095241
     74 C                    -0.210750
     75 S                     0.302084
     76 C                     0.151890
     77 C                     0.057639
     78 C                    -0.308860
     79 C                    -0.095405
     80 N                    -0.416536
     81 S                     0.276645
     82 C                     0.107444
     83 C                    -0.302165
     84 C                    -0.247844
     85 H                     0.084161
     86 H                     0.113179
     87 H                     0.099768
     88 H                     0.100956
     89 H                     0.129477
     90 H                     0.088933
     91 H                     0.113892
     92 H                     0.139671
     93 H                     0.114979
     94 C                    -0.189747
     95 H                     0.137979
     96 H                     0.101515
     97 H                     0.092826
     98 C                    -0.196045
     99 H                     0.085635
    100 C                    -0.176322
    101 H                     0.093883
    102 H                     0.079945
    103 H                     0.126213
    104 C                    -0.183535
    105 H                     0.090353
    106 C                    -0.329216
    107 H                     0.101902
    108 H                     0.096881
    109 H                     0.100954
    110 H                     0.112382
  ----------------------------------------
  Sum of atomic charges =     0.000000

                    Cartesian Multipole Moments
 -----------------------------------------------------------------
    Charge (ESU x 10^10)
                 0.0000
    Dipole Moment (Debye)
         X      -2.2634      Y      -1.1998      Z       2.5538
       Tot       3.6172
    Quadrupole Moments (Debye-Ang)
        XX    -403.5366     XY       5.5675     YY    -420.5549
        XZ       5.9947     YZ       7.8923     ZZ    -429.5521

 Total job time:  87.74s(wall), 962.93s(cpu)
        *  Thank you very much for using Q-Chem.  Have a nice day.  *
