 Q-Chem 4.4, Q-Chem, Inc., Pleasanton, CA (2016)
 Q-Chem 4.4.2 for Intel X86 Linux

User input:
--------------------------------------------------------------
$comment
SP
$end

$rem
MEM_STATIC 5000
MEM_TOTAL 20000
JOBTYPE SP
EXCHANGE B3LYP
BASIS 6-31g(d,p)
$end

$molecule
0 1
C           3.222000    -30.786000      0.071000
C           2.397000    -30.265000      1.070000
N           4.333000    -30.155000     -0.363000
C           2.701000    -29.019000      1.605000
C           4.670000    -28.981000      0.146000
C           3.871000    -28.309000      1.099000
C           4.304000    -27.040000      1.741000
C           3.287000    -26.148000      2.256000
C           5.636000    -26.513000      1.799000
N           3.560000    -24.872000      2.701000
N           6.739000    -27.262000      1.481000
C           5.869000    -25.236000      2.359000
C           4.802000    -24.405000      2.744000
S           8.010000    -26.377000      1.957000
N           7.193000    -25.064000      2.582000
C           5.022000    -23.025000      3.305000
S           6.603000    -22.239000      3.416000
C           4.030000    -22.145000      3.515000
C           5.828000    -20.694000      3.646000
S           2.293000    -22.346000      3.285000
C           4.475000    -20.864000      3.877000
C           6.368000    -19.477000      4.025000
C           2.140000    -20.772000      4.135000
C           3.360000    -20.058000      4.275000
N           7.536000    -19.246000      3.468000
S           6.108000    -18.722000      5.582000
C           8.159000    -18.248000      4.127000
C           7.465000    -17.754000      5.236000
C           2.746000    -32.044000     -0.635000
H           1.436000    -30.669000      1.374000
H           2.027000    -28.457000      2.245000
H           5.517000    -28.454000     -0.290000
H           2.236000    -26.416000      2.158000
H           1.180000    -20.313000      4.331000
H           3.489000    -19.020000      4.559000
H           9.105000    -17.915000      3.720000
H           7.789000    -16.925000      5.852000
H           1.722000    -32.286000     -0.325000
C           3.588000    -33.285000     -0.253000
H           2.744000    -31.860000     -1.716000
H           3.396000    -33.297000      0.827000
H           4.639000    -32.993000     -0.370000
C           3.065000    -34.529000     -0.982000
H           1.970000    -34.582000     -1.025000
C           3.708000    -35.770000     -0.391000
H           3.310000    -34.516000     -2.051000
H           3.572000    -35.783000      0.698000
H           4.791000    -35.764000     -0.565000
C           3.150000    -36.971000     -1.119000
H           2.058000    -36.872000     -1.102000
C           3.585000    -38.232000     -0.403000
H           3.410000    -36.922000     -2.183000
H           3.374000    -38.403000      0.659000
H           4.677000    -38.290000     -0.496000
H           3.151000    -39.064000     -0.970000
C           3.811000    -28.338000     -3.187000
C           5.129000    -28.201000     -3.638000
N           3.329000    -27.491000     -2.216000
C           6.002000    -27.281000     -3.027000
C           4.124000    -26.585000     -1.746000
C           5.431000    -26.355000     -2.111000
C           6.355000    -25.347000     -1.412000
C           7.748000    -25.538000     -1.277000
C           5.846000    -24.106000     -0.979000
N           8.562000    -24.575000     -0.727000
N           4.548000    -23.772000     -0.959000
C           6.649000    -23.141000     -0.404000
C           8.036000    -23.406000     -0.333000
S           4.356000    -22.295000     -0.249000
N           5.977000    -22.057000      0.006000
C           8.944000    -22.404000      0.318000
S           8.651000    -20.606000      0.672000
C          10.246000    -22.668000      0.741000
C          10.338000    -20.302000      0.827000
S          11.161000    -24.082000      0.801000
C          11.023000    -21.490000      0.883000
C          10.803000    -19.002000      1.332000
C          12.671000    -23.166000      0.914000
C          12.425000    -21.789000      1.005000
N          11.855000    -18.965000      2.150000
S          10.151000    -17.386000      0.843000
C          12.157000    -17.615000      2.457000
C          11.191000    -16.697000      2.062000
C           2.881000    -29.428000     -3.687000
H           5.490000    -28.830000     -4.447000
H           6.991000    -27.132000     -3.449000
H           3.631000    -25.985000     -0.982000
H           8.278000    -26.437000     -1.585000
H          13.559000    -23.775000      1.017000
H          13.236000    -21.072000      1.061000
H          13.067000    -17.410000      3.004000
H          11.370000    -15.635000      2.170000
H           3.426000    -30.375000     -3.585000
C           2.624000    -29.144000     -5.187000
H           2.021000    -29.457000     -3.006000
H           3.556000    -29.114000     -5.766000
H           2.134000    -28.164000     -5.234000
C           1.644000    -30.211000     -5.668000
H           2.124000    -31.178000     -5.860000
C           0.879000    -29.770000     -6.999000
H           0.812000    -30.310000     -4.960000
H           0.783000    -28.679000     -7.066000
H          -0.138000    -30.174000     -7.082000
C           1.706000    -30.108000     -8.225000
H           1.218000    -29.753000     -9.141000
C           1.874000    -31.644000     -8.474000
H           2.639000    -29.530000     -8.188000
H           0.882000    -32.085000     -8.629000
H           2.405000    -32.136000     -7.649000
H           2.486000    -31.707000     -9.382000
$end

--------------------------------------------------------------

             Standard Nuclear Orientation (Angstroms)
    I     Atom           X                Y                Z
 ----------------------------------------------------------------
    1      C       6.1301268904     1.5212623126    -1.2205997546
    2      C       5.6454511738     2.8211802472    -1.0613207134
    3      N       5.3224645450     0.4421272007    -1.2837420246
    4      C       4.2772215788     3.0098560830    -0.9080033805
    5      C       4.0119997173     0.5876894411    -1.1722989030
    6      C       3.4057466029     1.8396404923    -0.9207641604
    7      C       1.9295286638     2.0134832032    -0.8968203023
    8      C       1.3789829610     3.1134605817    -0.1338476972
    9      C       0.9470328653     1.1247146169    -1.4446427241
   10      N       0.0297801112     3.2608745508     0.1083315584
   11      N       1.2718199716     0.1063354471    -2.3026352661
   12      C      -0.4291306679     1.3818142596    -1.2479406557
   13      C      -0.8616240826     2.4238334447    -0.4086430541
   14      S      -0.1420210200    -0.4363738655    -2.8786233323
   15      N      -1.1668531722     0.6085771006    -2.0786986245
   16      C      -2.3205514443     2.6928345462    -0.1503982855
   17      S      -3.6381567075     1.6709182701    -0.7413987045
   18      C      -2.7603534731     3.5589567335     0.7764083459
   19      C      -4.7333826259     2.4110643460     0.3957969576
   20      S      -1.8360406910     4.6181757730     1.8413829500
   21      C      -4.1502124982     3.5262929513     0.9694238051
   22      C      -6.1117411209     2.3221312299     0.4882564629
   23      C      -3.4200504660     5.3588952663     2.2483628819
   24      C      -4.5476532420     4.6109076154     1.8161332510
   25      N      -6.5574633914     1.1078307647     0.2545043764
   26      S      -7.2147852979     3.6229673336     0.0971132989
   27      C      -7.8831659391     1.1542957688     0.0120837535
   28      C      -8.4352486057     2.4391138502     0.0125600948
   29      C       7.6367357101     1.3326664239    -1.1743671344
   30      H       6.2495113178     3.7068330936    -0.8884526189
   31      H       3.8291735062     3.9497846481    -0.5989609608
   32      H       3.3952527927    -0.3085606316    -1.1323860200
   33      H       2.0476201861     3.7806404970     0.4082078551
   34      H      -3.5098235537     6.1842707434     2.9421878703
   35      H      -5.5810824694     4.7412925495     2.1157409960
   36      H      -8.3839550759     0.2049039358    -0.1269104476
   37      H      -9.4865392553     2.6628619872    -0.1154935706
   38      H       8.1254524817     2.2702083720    -0.8821155085
   39      C       8.2269309527     0.9845498550    -2.5619742222
   40      H       7.8719522098     0.5722122290    -0.4201764319
   41      H       7.9209882053     1.8845956373    -3.1094453401
   42      H       7.6156130030     0.1655957757    -2.9609210612
   43      C       9.7481135096     0.8131154936    -2.4664761153
   44      H      10.2313822632     1.5545095003    -1.8180401212
   45      C      10.3396155216     0.7534541882    -3.8626769957
   46      H      10.0287709735    -0.1165303122    -1.9566280362
   47      H      10.0096494737     1.6203270625    -4.4493965430
   48      H       9.9792829311    -0.1340510446    -4.3971822679
   49      C      11.8374528844     0.6082741945    -3.7242753915
   50      H      12.1688724710     1.3930149085    -3.0336980466
   51      C      12.4810643606     0.7835473478    -5.0833359454
   52      H      12.0799575128    -0.3277132813    -3.2073460439
   53      H      12.3239126500     1.6811432875    -5.6926231264
   54      H      12.1423082328    -0.0542068315    -5.7061434766
   55      H      13.5596630706     0.6720789979    -4.9212599451
   56      C       5.0022519759    -1.1535499768     1.6995828414
   57      C       4.5400991469    -2.4005058805     1.2627651027
   58      N       4.1185788286    -0.1091722464     1.8443962559
   59      C       3.2014262064    -2.5660150392     0.8597620298
   60      C       2.8728516313    -0.3197450250     1.5658574709
   61      C       2.3049359690    -1.4962174074     1.1325463425
   62      C       0.8400848976    -1.6336860610     0.6923705732
   63      C       0.4156187235    -2.5250497845    -0.3178047480
   64      C      -0.1731684676    -0.9434979824     1.3877906146
   65      N      -0.9147302930    -2.6912677193    -0.6260385753
   66      N       0.0372409929    -0.0066292405     2.3230792435
   67      C      -1.5100018536    -1.0842098154     1.0719810545
   68      C      -1.8462178790    -2.0181073326     0.0650901906
   69      S      -1.3987947603     0.6605816514     2.7868937985
   70      N      -2.3187608221    -0.2983338172     1.7952015231
   71      C      -3.2824547256    -2.1783896977    -0.3396347579
   72      S      -4.8233075379    -1.6856906145     0.5697547208
   73      C      -3.7138971810    -2.8030165403    -1.5090481644
   74      C      -5.7886372769    -2.7607091635    -0.3655974131
   75      S      -2.8886977857    -3.4340596446    -2.8360943424
   76      C      -5.0650141363    -3.2278174663    -1.4341873175
   77      C      -7.2540164116    -2.7058571674    -0.2611692081
   78      C      -4.2899524298    -4.4018994751    -3.3174429528
   79      C      -5.3965922956    -4.1368546354    -2.4988921355
   80      N      -7.9871469771    -2.8684264789    -1.3626626457
   81      S      -8.1971828326    -2.5602703035     1.2766612660
   82      C      -9.3604877776    -2.8377515607    -1.0148881567
   83      C      -9.6239660862    -2.4176448614     0.2835703686
   84      C       6.4671093074    -0.8725381199     1.9792707647
   85      H       5.2269210055    -3.2404939579     1.2067404256
   86      H       2.8456264919    -3.5599833830     0.6070972427
   87      H       2.2778654076     0.5809791323     1.7122555111
   88      H       1.0853234163    -3.1348469420    -0.9208039612
   89      H      -4.1531119020    -4.9676678450    -4.2291527869
   90      H      -6.3384855079    -4.6555815880    -2.6356602796
   91      H     -10.0834619254    -3.0887011578    -1.7788689689
   92      H     -10.6334720367    -2.4467090584     0.6729313945
   93      H       7.0236113063    -1.2035366197     1.0932778085
   94      C       6.8673024282    -1.7477468160     3.1919373323
   95      H       6.5776672533     0.2161303256     2.0616112563
   96      H       6.6912414096    -2.8149877287     3.0054853222
   97      H       6.2416837516    -1.4159762013     4.0293371954
   98      C       8.3250764288    -1.4175389119     3.5019497567
   99      H       9.0298836454    -1.9112355975     2.8223444521
  100      C       8.7270719159    -1.8114408305     4.9967768059
  101      H       8.4744806725    -0.3308857625     3.5142909360
  102      H       7.8623570129    -1.7697541884     5.6709550912
  103      H       9.4925927589    -1.1603013552     5.4376727375
  104      C       9.1376794364    -3.2699274083     5.0707184492
  105      H       9.3557676165    -3.5671612455     6.1038276360
  106      C      10.4664768791    -3.5949140835     4.3103224885
  107      H       8.2735276542    -3.8909422197     4.7995648002
  108      H      11.2797666510    -3.0131291907     4.7604958834
  109      H      10.3809490715    -3.3951526929     3.2344831042
  110      H      10.6117749769    -4.6710810810     4.4643681191
 ----------------------------------------------------------------

   10   -5663.4756239252      3.84E-06 Convergence criterion met
 Total energy in the final basis set = -5663.4756239252

                    Orbital Energies (a.u.)
 --------------------------------------------------------------

 Alpha MOs
 -- Occupied --
-88.984 -88.984 -88.927 -88.926 -88.916 -88.914 -88.910 -88.901
-14.378 -14.377 -14.374 -14.367 -14.349 -14.347 -14.346 -14.334
-14.321 -14.316 -10.274 -10.259 -10.258 -10.253 -10.249 -10.249
-10.243 -10.242 -10.241 -10.239 -10.238 -10.234 -10.232 -10.231
-10.228 -10.227 -10.226 -10.225 -10.225 -10.223 -10.222 -10.221
-10.221 -10.221 -10.221 -10.217 -10.215 -10.209 -10.208 -10.208
-10.208 -10.205 -10.204 -10.204 -10.198 -10.198 -10.193 -10.193
-10.184 -10.181 -10.178 -10.178 -10.176 -10.176 -10.174 -10.174
-10.173 -10.173 -10.169 -10.169  -8.038  -8.038  -7.988  -7.987
 -7.975  -7.972  -7.969  -7.963  -6.003  -6.003  -5.998  -5.998
 -5.996  -5.996  -5.952  -5.951  -5.948  -5.948  -5.945  -5.944
 -5.939  -5.937  -5.935  -5.933  -5.933  -5.931  -5.930  -5.929
 -5.927  -5.924  -5.923  -5.919  -1.025  -1.023  -0.976  -0.955
 -0.951  -0.948  -0.938  -0.933  -0.908  -0.904  -0.891  -0.887
 -0.838  -0.834  -0.825  -0.823  -0.812  -0.811  -0.808  -0.803
 -0.800  -0.800  -0.793  -0.787  -0.786  -0.780  -0.764  -0.759
 -0.744  -0.742  -0.736  -0.735  -0.717  -0.715  -0.707  -0.702
 -0.688  -0.688  -0.670  -0.668  -0.654  -0.649  -0.638  -0.636
 -0.629  -0.629  -0.618  -0.616  -0.608  -0.607  -0.597  -0.593
 -0.589  -0.584  -0.583  -0.581  -0.578  -0.575  -0.569  -0.553
 -0.543  -0.536  -0.532  -0.532  -0.518  -0.516  -0.514  -0.504
 -0.502  -0.500  -0.494  -0.492  -0.484  -0.480  -0.475  -0.473
 -0.470  -0.466  -0.465  -0.464  -0.456  -0.451  -0.448  -0.443
 -0.442  -0.438  -0.437  -0.432  -0.431  -0.431  -0.430  -0.429
 -0.427  -0.422  -0.421  -0.417  -0.415  -0.414  -0.412  -0.409
 -0.406  -0.403  -0.403  -0.400  -0.398  -0.396  -0.396  -0.391
 -0.391  -0.389  -0.388  -0.384  -0.382  -0.378  -0.378  -0.376
 -0.375  -0.372  -0.371  -0.369  -0.366  -0.361  -0.360  -0.356
 -0.352  -0.349  -0.345  -0.344  -0.341  -0.341  -0.338  -0.338
 -0.333  -0.332  -0.329  -0.326  -0.324  -0.320  -0.319  -0.318
 -0.316  -0.308  -0.306  -0.301  -0.294  -0.293  -0.292  -0.290
 -0.289  -0.288  -0.286  -0.283  -0.282  -0.281  -0.279  -0.277
 -0.271  -0.271  -0.261  -0.259  -0.248  -0.247  -0.244  -0.241
 -0.239  -0.232  -0.225  -0.221  -0.190  -0.188

          Ground-State Mulliken Net Atomic Charges

     Atom                 Charge (a.u.)
  ----------------------------------------
      1 C                     0.276194
      2 C                    -0.112856
      3 N                    -0.498893
      4 C                    -0.078365
      5 C                     0.103773
      6 C                     0.034430
      7 C                     0.042985
      8 C                     0.048645
      9 C                     0.186883
     10 N                    -0.540906
     11 N                    -0.550407
     12 C                     0.227629
     13 C                     0.315694
     14 S                     0.636103
     15 N                    -0.588839
     16 C                    -0.219134
     17 S                     0.370491
     18 C                    -0.119687
     19 C                    -0.187627
     20 S                     0.284195
     21 C                     0.125532
     22 C                     0.024429
     23 C                    -0.307073
     24 C                    -0.092569
     25 N                    -0.405916
     26 S                     0.288453
     27 C                     0.117965
     28 C                    -0.314801
     29 C                    -0.233104
     30 H                     0.091753
     31 H                     0.094251
     32 H                     0.118946
     33 H                     0.118648
     34 H                     0.121395
     35 H                     0.110306
     36 H                     0.119537
     37 H                     0.132849
     38 H                     0.092168
     39 C                    -0.178305
     40 H                     0.110355
     41 H                     0.091547
     42 H                     0.118093
     43 C                    -0.176166
     44 H                     0.089786
     45 C                    -0.160096
     46 H                     0.091798
     47 H                     0.091541
     48 H                     0.093762
     49 C                    -0.176212
     50 H                     0.088485
     51 C                    -0.317014
     52 H                     0.095607
     53 H                     0.106362
     54 H                     0.099447
     55 H                     0.093177
     56 C                     0.258667
     57 C                    -0.100016
     58 N                    -0.468987
     59 C                    -0.102030
     60 C                     0.073140
     61 C                     0.049669
     62 C                     0.044080
     63 C                     0.022811
     64 C                     0.241549
     65 N                    -0.529394
     66 N                    -0.575906
     67 C                     0.258927
     68 C                     0.300285
     69 S                     0.619149
     70 N                    -0.592844
     71 C                    -0.218580
     72 S                     0.359833
     73 C                    -0.099624
     74 C                    -0.236467
     75 S                     0.271745
     76 C                     0.133071
     77 C                     0.055999
     78 C                    -0.320497
     79 C                    -0.038682
     80 N                    -0.412010
     81 S                     0.266764
     82 C                     0.093124
     83 C                    -0.302847
     84 C                    -0.231793
     85 H                     0.083417
     86 H                     0.101739
     87 H                     0.116182
     88 H                     0.117602
     89 H                     0.133765
     90 H                     0.113793
     91 H                     0.117236
     92 H                     0.131064
     93 H                     0.120641
     94 C                    -0.182085
     95 H                     0.121798
     96 H                     0.101757
     97 H                     0.112657
     98 C                    -0.175401
     99 H                     0.094818
    100 C                    -0.181122
    101 H                     0.095971
    102 H                     0.088285
    103 H                     0.083729
    104 C                    -0.179779
    105 H                     0.086919
    106 C                    -0.314147
    107 H                     0.089641
    108 H                     0.105631
    109 H                     0.100986
    110 H                     0.100527
  ----------------------------------------
  Sum of atomic charges =     0.000000

                    Cartesian Multipole Moments
 -----------------------------------------------------------------
    Charge (ESU x 10^10)
                 0.0000
    Dipole Moment (Debye)
         X      -1.7335      Y       0.0621      Z       0.7662
       Tot       1.8963
    Quadrupole Moments (Debye-Ang)
        XX    -375.2109     XY       0.4569     YY    -426.3797
        XZ      -1.4593     YZ       8.3649     ZZ    -443.4025

 Total job time:  119.03s(wall), 1269.37s(cpu)
        *  Thank you very much for using Q-Chem.  Have a nice day.  *
