 Q-Chem 4.4, Q-Chem, Inc., Pleasanton, CA (2016)
 Q-Chem 4.4.2 for Intel X86 Linux

User input:
--------------------------------------------------------------
$comment
SP
$end

$rem
MEM_STATIC 5000
MEM_TOTAL 20000
JOBTYPE SP
EXCHANGE B3LYP
BASIS 6-31g(d,p)
$end

$molecule
0 1
C          -1.356000    -17.143000     11.799000
C          -0.509000    -16.902000     12.901000
N          -0.926000    -17.202000     10.490000
C           0.802000    -16.506000     12.634000
C           0.388000    -16.793000     10.297000
C           1.296000    -16.412000     11.320000
C           2.694000    -16.043000     10.982000
C           3.148000    -14.781000     11.319000
C           3.647000    -17.001000     10.581000
N           4.399000    -14.360000     11.063000
N           3.320000    -18.283000     10.465000
C           4.960000    -16.637000     10.336000
C           5.285000    -15.236000     10.405000
S           4.659000    -18.977000      9.851000
N           5.694000    -17.699000      9.912000
C           6.623000    -14.754000      9.818000
S           7.624000    -15.735000      8.731000
C           6.937000    -13.436000      9.595000
C           8.456000    -14.272000      8.033000
S           6.139000    -11.957000     10.232000
C           7.831000    -13.183000      8.561000
C           9.322000    -14.277000      6.941000
C           7.071000    -11.001000      8.959000
C           7.948000    -11.815000      8.254000
N           9.848000    -15.455000      6.656000
S           9.316000    -13.124000      5.615000
C          10.180000    -15.546000      5.288000
C           9.820000    -14.471000      4.556000
C          -2.745000    -17.658000     12.062000
H          -0.873000    -17.238000     13.868000
H           1.452000    -16.221000     13.455000
H           0.736000    -16.821000      9.265000
H           2.431000    -14.027000     11.641000
H           6.852000     -9.962000      8.749000
H           8.530000    -11.421000      7.429000
H          10.593000    -16.456000      4.873000
H           9.659000    -14.185000      3.525000
H          -2.662000    -18.668000     12.483000
C          -3.654000    -17.664000     10.777000
H          -3.319000    -17.075000     12.793000
H          -3.219000    -18.185000      9.915000
H          -3.860000    -16.652000     10.407000
C          -4.912000    -18.400000     11.162000
H          -4.624000    -19.402000     11.504000
C          -6.032000    -18.634000     10.027000
H          -5.418000    -17.839000     11.958000
H          -6.988000    -19.060000     10.355000
H          -5.706000    -19.398000      9.311000
C          -6.464000    -17.295000      9.442000
H          -5.623000    -16.932000      8.839000
C          -7.112000    -16.394000     10.512000
H          -7.207000    -17.505000      8.662000
H          -8.016000    -16.916000     10.847000
H          -7.347000    -15.373000     10.186000
H          -6.456000    -16.280000     11.384000
C           3.811000    -28.338000     -3.187000
C           5.129000    -28.201000     -3.638000
N           3.329000    -27.491000     -2.216000
C           6.002000    -27.281000     -3.027000
C           4.124000    -26.585000     -1.746000
C           5.431000    -26.355000     -2.111000
C           6.355000    -25.347000     -1.412000
C           7.748000    -25.538000     -1.277000
C           5.846000    -24.106000     -0.979000
N           8.562000    -24.575000     -0.727000
N           4.548000    -23.772000     -0.959000
C           6.649000    -23.141000     -0.404000
C           8.036000    -23.406000     -0.333000
S           4.356000    -22.295000     -0.249000
N           5.977000    -22.057000      0.006000
C           8.944000    -22.404000      0.318000
S           8.651000    -20.606000      0.672000
C          10.246000    -22.668000      0.741000
C          10.338000    -20.302000      0.827000
S          11.161000    -24.082000      0.801000
C          11.023000    -21.490000      0.883000
C          10.803000    -19.002000      1.332000
C          12.671000    -23.166000      0.914000
C          12.425000    -21.789000      1.005000
N          11.855000    -18.965000      2.150000
S          10.151000    -17.386000      0.843000
C          12.157000    -17.615000      2.457000
C          11.191000    -16.697000      2.062000
C           2.881000    -29.428000     -3.687000
H           5.490000    -28.830000     -4.447000
H           6.991000    -27.132000     -3.449000
H           3.631000    -25.985000     -0.982000
H           8.278000    -26.437000     -1.585000
H          13.559000    -23.775000      1.017000
H          13.236000    -21.072000      1.061000
H          13.067000    -17.410000      3.004000
H          11.370000    -15.635000      2.170000
H           3.426000    -30.375000     -3.585000
C           2.624000    -29.144000     -5.187000
H           2.021000    -29.457000     -3.006000
H           3.556000    -29.114000     -5.766000
H           2.134000    -28.164000     -5.234000
C           1.644000    -30.211000     -5.668000
H           2.124000    -31.178000     -5.860000
C           0.879000    -29.770000     -6.999000
H           0.812000    -30.310000     -4.960000
H           0.783000    -28.679000     -7.066000
H          -0.138000    -30.174000     -7.082000
C           1.706000    -30.108000     -8.225000
H           1.218000    -29.753000     -9.141000
C           1.874000    -31.644000     -8.474000
H           2.639000    -29.530000     -8.188000
H           0.882000    -32.085000     -8.629000
H           2.405000    -32.136000     -7.649000
H           2.486000    -31.707000     -9.382000
$end

--------------------------------------------------------------

             Standard Nuclear Orientation (Angstroms)
    I     Atom           X                Y                Z
 ----------------------------------------------------------------
    1      C       8.4841448031    -6.1326388218    -0.8373863048
    2      C       9.3516552831    -5.3828034195    -1.6590105721
    3      N       7.3928827258    -5.6057687661    -0.1790421524
    4      C       9.2137485546    -3.9943996982    -1.6470589645
    5      C       7.3189109568    -4.2183640939    -0.2066547062
    6      C       8.2069093408    -3.3548678557    -0.9009076258
    7      C       7.9855578736    -1.8866344771    -0.8907452572
    8      C       8.9791813867    -1.0684635492    -0.3851390400
    9      C       6.9356184126    -1.2809844803    -1.6101819880
   10      N       8.8741051317     0.2713026527    -0.3431449339
   11      N       6.0786151274    -2.0121668260    -2.3136212153
   12      C       6.7937367839     0.0958729272    -1.6351476231
   13      C       7.6911313220     0.8711845926    -0.8185927478
   14      S       4.9800154373    -0.9322610407    -2.8412908238
   15      N       5.6915063374     0.4641668831    -2.3392950542
   16      C       7.3615361906     2.3499051475    -0.5504704437
   17      S       5.7701145646     3.0689360318    -0.8607973611
   18      C       7.9863516682     3.1190830381     0.4000136391
   19      C       6.0530645004     4.4239648324     0.3239529431
   20      S       9.5245633870     2.8101524379     1.2766438876
   21      C       7.2357159597     4.1550079716     0.9438946603
   22      C       5.0982819986     5.3518750016     0.7360428511
   23      C       9.0347159545     4.1489364341     2.4474538229
   24      C       7.8568604398     4.7668960640     2.0480388978
   25      N       4.0573442029     5.4709041658    -0.0688581139
   26      S       4.8278087555     5.8889888226     2.3871255165
   27      C       2.9150150392     5.9019696048     0.6376796905
   28      C       3.0957861871     6.0159053327     1.9701170969
   29      C       8.5544467465    -7.6341170119    -0.9032337151
   30      H       9.9228703082    -5.9452547800    -2.3923882797
   31      H       9.9244463051    -3.3819462397    -2.1925637479
   32      H       6.4690692118    -3.7882554525     0.3222002503
   33      H       9.8056569392    -1.5150110400     0.1660619211
   34      H       9.5680764157     4.3238841758     3.3729277047
   35      H       7.3990058802     5.5367496147     2.6581861856
   36      H       1.9622561237     6.0218606887     0.1389106287
   37      H       2.5193403377     6.0786022322     2.8836034304
   38      H       8.2189312702    -7.9495289356    -1.8993133723
   39      C       7.7066455288    -8.3409063924     0.2189177306
   40      H       9.5616602260    -8.0514237472    -0.7803431320
   41      H       6.6594756196    -8.0174324126     0.2690152908
   42      H       8.0996859391    -8.1452403545     1.2242604769
   43      C       7.7100402243    -9.8094660420    -0.1213851220
   44      H       7.2904102102    -9.9220889529    -1.1289260548
   45      C       6.8610228565   -10.8079031038     0.8165242248
   46      H       8.7427950158   -10.1781176567    -0.0779509460
   47      H       6.9752932213   -11.8822071308     0.6272911903
   48      H       5.7854681510   -10.6856136361     0.6408672824
   49      C       7.3315247016   -10.6871086470     2.2607564475
   50      H       6.9851658000    -9.7110042499     2.6211932897
   51      C       8.8086535416   -11.1023337579     2.4100330276
   52      H       6.7129371425   -11.3652054100     2.8624899530
   53      H       8.8596978089   -12.1617862652     2.1327608372
   54      H       9.2449212616   -10.9355444877     3.4029045278
   55      H       9.4483274621   -10.5485330339     1.7115789966
   56      C     -10.7385679324    -3.4757601698    -0.6518575568
   57      C     -11.1817708316    -2.1490154246    -0.7029806573
   58      N      -9.3945907616    -3.7435829573    -0.5311499817
   59      C     -10.2580415479    -1.0876406758    -0.7483442198
   60      C      -8.5754893850    -2.7440485801    -0.4697906813
   61      C      -8.8927475369    -1.4053026413    -0.5082689411
   62      C      -7.8536084258    -0.2760231019    -0.5662226250
   63      C      -8.0720959187     0.9430235499    -1.2454453250
   64      C      -6.6628277638    -0.3741168101     0.1814872382
   65      N      -7.1587992145     1.9708853175    -1.2023835440
   66      N      -6.2494379103    -1.4728447581     0.8285310738
   67      C      -5.7277350881     0.6413810163     0.2135005541
   68      C      -6.0409683847     1.8366218500    -0.4737543124
   69      S      -4.7438526595    -1.2252694671     1.4565537869
   70      N      -4.6309847908     0.3400214231     0.9213573058
   71      C      -5.0397422246     2.9542716436    -0.4997180424
   72      S      -3.5852709377     3.2572508277     0.6123457551
   73      C      -5.0733687735     4.0313165201    -1.3844058907
   74      C      -3.5156410605     4.9178645913     0.1652175764
   75      S      -6.0586348684     4.3939503962    -2.7027261835
   76      C      -4.3272138267     5.1437812033    -0.9183027647
   77      C      -2.3720664384     5.7405819077     0.5854833268
   78      C      -5.6060497262     6.1037240639    -2.6413609317
   79      C      -4.6255728065     6.3356851940    -1.6667917735
   80      N      -1.8789726774     6.6434549576    -0.2623821098
   81      S      -1.6210471223     5.7403059042     2.2321924422
   82      C      -0.8303431511     7.3533100264     0.3735698522
   83      C      -0.4073571524     6.8105761099     1.5812236689
   84      C     -11.6781934659    -4.6609061927    -0.7764880558
   85      H     -12.2469121704    -1.9374717764    -0.7371305219
   86      H     -10.6245635487    -0.0669389705    -0.7010615401
   87      H      -7.5440305341    -3.0836483529    -0.3831325416
   88      H      -8.9534864970     1.1639006667    -1.8440511617
   89      H      -6.0425653205     6.7120733904    -3.4220012029
   90      H      -4.2428446017     7.3315720311    -1.4752858234
   91      H      -0.4154373690     8.2114626969    -0.1370779579
   92      H       0.3247472223     7.3292372714     2.1866679553
   93      H     -12.2815019662    -4.4881841262    -1.6767235479
   94      C     -12.5976753241    -4.6361644458     0.4687613000
   95      H     -11.0574390898    -5.5490426556    -0.9499228496
   96      H     -13.1507780747    -3.6918892319     0.5535355151
   97      H     -11.9395442555    -4.7524075979     1.3382784224
   98      C     -13.5011097463    -5.8621959715     0.3643441413
   99      H     -14.3306960857    -5.7241842793    -0.3392837989
  100      C     -14.1199103800    -6.2764322602     1.7774121060
  101      H     -12.9084424285    -6.7511954064     0.1159201988
  102      H     -13.4626603108    -5.9848729360     2.6062676465
  103      H     -14.2944460672    -7.3542870470     1.8876860938
  104      C     -15.3826024735    -5.4840117561     2.0583523516
  105      H     -15.7811923709    -5.7155584956     3.0537101773
  106      C     -16.5728697763    -5.8255777560     1.1012121240
  107      H     -15.1201861532    -4.4197993830     2.1256702525
  108      H     -16.8291031615    -6.8847551850     1.2239216439
  109      H     -16.3365932822    -5.5906915747     0.0554339925
  110      H     -17.3887593639    -5.1749981317     1.4389210716
 ----------------------------------------------------------------

    9   -5663.4671839833      7.42E-06 Convergence criterion met
 Total energy in the final basis set = -5663.4671839833

                    Orbital Energies (a.u.)
 --------------------------------------------------------------

 Alpha MOs
 -- Occupied --
-88.992 -88.988 -88.933 -88.924 -88.923 -88.922 -88.912 -88.906
-14.387 -14.382 -14.380 -14.375 -14.356 -14.353 -14.352 -14.344
-14.334 -14.322 -10.281 -10.278 -10.267 -10.266 -10.255 -10.250
-10.249 -10.249 -10.247 -10.247 -10.245 -10.241 -10.240 -10.239
-10.237 -10.236 -10.236 -10.235 -10.234 -10.232 -10.230 -10.229
-10.229 -10.228 -10.227 -10.227 -10.215 -10.214 -10.213 -10.212
-10.212 -10.211 -10.211 -10.207 -10.206 -10.204 -10.199 -10.198
-10.188 -10.187 -10.187 -10.181 -10.176 -10.175 -10.174 -10.172
-10.172 -10.171 -10.171 -10.170  -8.046  -8.043  -7.993  -7.985
 -7.983  -7.980  -7.970  -7.968  -6.012  -6.008  -6.006  -6.004
 -6.003  -6.001  -5.957  -5.954  -5.950  -5.949  -5.947  -5.945
 -5.944  -5.943  -5.942  -5.940  -5.939  -5.936  -5.935  -5.932
 -5.931  -5.928  -5.926  -5.924  -1.040  -1.032  -0.967  -0.961
 -0.954  -0.945  -0.943  -0.922  -0.912  -0.912  -0.904  -0.894
 -0.845  -0.834  -0.830  -0.829  -0.812  -0.809  -0.809  -0.807
 -0.801  -0.800  -0.797  -0.792  -0.785  -0.781  -0.767  -0.764
 -0.748  -0.747  -0.741  -0.737  -0.723  -0.720  -0.707  -0.704
 -0.693  -0.689  -0.677  -0.676  -0.659  -0.657  -0.643  -0.639
 -0.636  -0.635  -0.627  -0.623  -0.613  -0.612  -0.600  -0.599
 -0.596  -0.590  -0.589  -0.585  -0.584  -0.576  -0.555  -0.549
 -0.546  -0.546  -0.539  -0.539  -0.523  -0.522  -0.518  -0.510
 -0.505  -0.504  -0.499  -0.498  -0.488  -0.483  -0.476  -0.474
 -0.472  -0.472  -0.469  -0.467  -0.465  -0.461  -0.451  -0.451
 -0.448  -0.445  -0.444  -0.439  -0.438  -0.437  -0.434  -0.434
 -0.431  -0.427  -0.425  -0.422  -0.419  -0.418  -0.412  -0.410
 -0.407  -0.405  -0.405  -0.401  -0.400  -0.399  -0.399  -0.397
 -0.395  -0.394  -0.387  -0.386  -0.385  -0.383  -0.381  -0.380
 -0.379  -0.374  -0.373  -0.371  -0.367  -0.363  -0.362  -0.352
 -0.352  -0.350  -0.350  -0.348  -0.344  -0.343  -0.340  -0.338
 -0.337  -0.337  -0.333  -0.332  -0.328  -0.327  -0.321  -0.314
 -0.310  -0.309  -0.305  -0.303  -0.301  -0.297  -0.297  -0.297
 -0.295  -0.292  -0.289  -0.289  -0.287  -0.284  -0.282  -0.281
 -0.277  -0.277  -0.266  -0.261  -0.255  -0.254  -0.249  -0.248
 -0.246  -0.245  -0.237  -0.232  -0.199  -0.195

          Ground-State Mulliken Net Atomic Charges

     Atom                 Charge (a.u.)
  ----------------------------------------
      1 C                     0.267751
      2 C                    -0.110516
      3 N                    -0.475150
      4 C                    -0.073086
      5 C                     0.078370
      6 C                     0.040598
      7 C                    -0.018084
      8 C                     0.075634
      9 C                     0.233458
     10 N                    -0.508076
     11 N                    -0.537445
     12 C                     0.243521
     13 C                     0.273346
     14 S                     0.608300
     15 N                    -0.564514
     16 C                    -0.231441
     17 S                     0.355641
     18 C                    -0.130755
     19 C                    -0.209287
     20 S                     0.272273
     21 C                     0.167259
     22 C                     0.052591
     23 C                    -0.307723
     24 C                    -0.071979
     25 N                    -0.430345
     26 S                     0.244933
     27 C                     0.117078
     28 C                    -0.314713
     29 C                    -0.251848
     30 H                     0.098875
     31 H                     0.095559
     32 H                     0.101427
     33 H                     0.120487
     34 H                     0.133435
     35 H                     0.111326
     36 H                     0.129629
     37 H                     0.143924
     38 H                     0.120648
     39 C                    -0.163291
     40 H                     0.109171
     41 H                     0.119300
     42 H                     0.101157
     43 C                    -0.181968
     44 H                     0.084509
     45 C                    -0.186950
     46 H                     0.086571
     47 H                     0.083803
     48 H                     0.085847
     49 C                    -0.178539
     50 H                     0.097137
     51 C                    -0.313495
     52 H                     0.084345
     53 H                     0.105206
     54 H                     0.101157
     55 H                     0.104334
     56 C                     0.244283
     57 C                    -0.111456
     58 N                    -0.473842
     59 C                    -0.094928
     60 C                     0.094168
     61 C                     0.045015
     62 C                     0.038417
     63 C                     0.042519
     64 C                     0.250319
     65 N                    -0.527958
     66 N                    -0.568567
     67 C                     0.251017
     68 C                     0.302585
     69 S                     0.606740
     70 N                    -0.591810
     71 C                    -0.221140
     72 S                     0.313819
     73 C                    -0.094443
     74 C                    -0.231576
     75 S                     0.282703
     76 C                     0.135555
     77 C                     0.052611
     78 C                    -0.316030
     79 C                    -0.039138
     80 N                    -0.408579
     81 S                     0.266572
     82 C                     0.088943
     83 C                    -0.297756
     84 C                    -0.224128
     85 H                     0.083916
     86 H                     0.103088
     87 H                     0.113625
     88 H                     0.118328
     89 H                     0.137421
     90 H                     0.115936
     91 H                     0.122841
     92 H                     0.132404
     93 H                     0.108092
     94 C                    -0.179711
     95 H                     0.124712
     96 H                     0.102053
     97 H                     0.114156
     98 C                    -0.176805
     99 H                     0.095816
    100 C                    -0.181522
    101 H                     0.098231
    102 H                     0.088432
    103 H                     0.085334
    104 C                    -0.180330
    105 H                     0.087752
    106 C                    -0.314227
    107 H                     0.088817
    108 H                     0.106590
    109 H                     0.100902
    110 H                     0.100837
  ----------------------------------------
  Sum of atomic charges =     0.000000

                    Cartesian Multipole Moments
 -----------------------------------------------------------------
    Charge (ESU x 10^10)
                 0.0000
    Dipole Moment (Debye)
         X      -2.0447      Y       1.9733      Z       2.3270
       Tot       3.6728
    Quadrupole Moments (Debye-Ang)
        XX    -400.8726     XY     -10.6833     YY    -426.9309
        XZ       9.9974     YZ      22.6802     ZZ    -434.2075

 Total job time:  83.32s(wall), 896.42s(cpu)
        *  Thank you very much for using Q-Chem.  Have a nice day.  *
