 Q-Chem 4.4, Q-Chem, Inc., Pleasanton, CA (2016)
 Q-Chem 4.4.2 for Intel X86 Linux

User input:
--------------------------------------------------------------
$comment
SP
$end

$rem
MEM_STATIC 5000
MEM_TOTAL 20000
JOBTYPE SP
EXCHANGE B3LYP
BASIS 6-31g(d,p)
$end

$molecule
0 1
C         -26.432000     19.873000     -5.212000
C         -25.052000     19.842000     -5.290000
N         -27.165000     18.790000     -4.842000
C         -24.372000     18.566000     -4.983000
C         -26.571000     17.630000     -4.746000
C         -25.172000     17.408000     -4.870000
C         -24.555000     16.040000     -4.858000
C         -23.512000     15.719000     -3.973000
C         -24.990000     14.948000     -5.643000
N         -23.023000     14.450000     -3.812000
N         -25.964000     15.125000     -6.594000
C         -24.470000     13.645000     -5.505000
C         -23.441000     13.425000     -4.564000
S         -26.211000     13.611000     -7.168000
N         -25.090000     12.722000     -6.300000
C         -22.874000     12.132000     -4.112000
S         -22.195000     11.792000     -2.488000
C         -22.999000     10.902000     -4.749000
C         -22.193000     10.125000     -2.707000
S         -23.206000     10.578000     -6.482000
C         -22.495000      9.826000     -4.055000
C         -21.688000      9.179000     -1.730000
C         -22.800000      8.896000     -6.131000
C         -22.414000      8.629000     -4.795000
N         -21.738000      7.906000     -2.012000
S         -20.937000      9.674000     -0.228000
C         -21.123000      7.210000     -1.029000
C         -20.642000      7.964000      0.055000
C         -27.134000     21.184000     -5.261000
H         -24.486000     20.755000     -5.447000
H         -23.291000     18.478000     -5.036000
H         -27.305000     16.827000     -4.790000
H         -23.127000     16.459000     -3.273000
H         -22.805000      8.173000     -6.936000
H         -22.094000      7.662000     -4.426000
H         -21.043000      6.142000     -1.178000
H         -20.188000      7.544000      0.942000
H         -26.560000     21.737000     -6.014000
C         -26.981000     22.101000     -4.077000
H         -28.162000     21.169000     -5.645000
H         -25.930000     22.008000     -3.777000
H         -27.604000     21.749000     -3.245000
C         -27.237000     23.680000     -4.271000
H         -26.735000     24.060000     -5.169000
C         -27.055000     24.552000     -2.989000
H         -28.256000     23.801000     -4.658000
H         -27.171000     25.614000     -3.238000
H         -26.053000     24.516000     -2.545000
C         -27.951000     24.143000     -1.817000
H         -29.020000     24.268000     -2.029000
C         -27.684000     25.161000     -0.655000
H         -27.786000     23.104000     -1.507000
H         -28.554000     25.279000      0.003000
H         -27.577000     26.205000     -0.973000
H         -26.768000     24.840000     -0.145000
C         -23.796000     18.906000     -8.901000
C         -22.719000     19.509000     -8.274000
N         -23.974000     17.563000     -8.817000
C         -21.852000     18.711000     -7.506000
C         -23.120000     16.792000     -8.128000
C         -22.048000     17.314000     -7.382000
C         -21.187000     16.491000     -6.462000
C         -21.096000     15.057000     -6.682000
C         -20.385000     16.924000     -5.345000
N         -20.441000     14.167000     -5.930000
N         -20.246000     18.268000     -5.054000
C         -19.825000     15.990000     -4.484000
C         -19.912000     14.599000     -4.749000
S         -19.256000     18.238000     -3.780000
N         -19.168000     16.647000     -3.459000
C         -19.369000     13.502000     -4.016000
S         -18.924000     11.943000     -4.661000
C         -19.093000     13.488000     -2.619000
C         -18.665000     11.273000     -3.080000
S         -19.767000     14.601000     -1.354000
C         -18.773000     12.245000     -2.126000
C         -18.472000      9.831000     -2.773000
C         -19.388000     13.327000     -0.179000
C         -18.854000     12.199000     -0.709000
N         -17.627000      9.629000     -1.788000
S         -18.844000      8.447000     -3.811000
C         -17.465000      8.251000     -1.589000
C         -18.013000      7.510000     -2.595000
C         -24.823000     19.780000     -9.681000
H         -22.532000     20.578000     -8.311000
H         -21.035000     19.232000     -7.016000
H         -23.283000     15.715000     -8.141000
H         -21.627000     14.701000     -7.564000
H         -19.761000     13.434000      0.831000
H         -18.594000     11.338000     -0.104000
H         -16.789000      7.842000     -0.850000
H         -17.815000      6.458000     -2.754000
H         -24.289000     20.696000     -9.961000
C         -26.032000     20.111000     -8.814000
H         -25.211000     19.183000    -10.515000
H         -25.708000     20.570000     -7.872000
H         -26.449000     19.121000     -8.594000
C         -27.062000     20.945000     -9.629000
H         -26.624000     21.914000     -9.900000
C         -28.214000     21.299000     -8.709000
H         -27.384000     20.457000    -10.556000
H         -27.834000     21.999000     -7.954000
H         -28.607000     20.426000     -8.172000
C         -29.569000     21.868000     -9.399000
H         -29.986000     21.074000    -10.032000
C         -29.105000     22.980000    -10.430000
H         -30.305000     22.346000     -8.742000
H         -28.403000     23.785000    -10.177000
H         -30.021000     23.417000    -10.846000
H         -28.786000     22.560000    -11.391000
$end

--------------------------------------------------------------

             Standard Nuclear Orientation (Angstroms)
    I     Atom           X                Y                Z
 ----------------------------------------------------------------
    1      C      -5.8998167223     0.4062289958     1.2459970001
    2      C      -5.2300905828     0.8958997998     0.1400429316
    3      N      -5.2505261888    -0.1393901448     2.3079760756
    4      C      -3.7562123219     0.7856681877     0.1211520889
    5      C      -3.9723253400    -0.3904421291     2.2039208437
    6      C      -3.1470145789    -0.0219456083     1.1062262315
    7      C      -1.7075333551    -0.4301124113     0.9898188983
    8      C      -0.6957026576     0.5208968158     0.7755875058
    9      C      -1.2227146940    -1.7472689846     1.1570415862
   10      N       0.6403801269     0.2235181356     0.8186190468
   11      N      -2.0994478342    -2.7913631418     1.3170803059
   12      C       0.1503296571    -2.0663145814     1.1716058246
   13      C       1.0866379924    -1.0284633946     0.9743404821
   14      S      -1.1150563257    -4.0758079368     1.5697776079
   15      N       0.4025537203    -3.3841312243     1.4325585362
   16      C       2.5598183449    -1.0816562591     1.1310317973
   17      S       3.6139371782     0.2799254747     1.6299763510
   18      C       3.3493927852    -2.2255705830     1.1792627290
   19      C       4.9427306615    -0.7042454892     1.9342285367
   20      S       3.0457567182    -3.8030393875     0.4239407382
   21      C       4.6776938271    -2.0119869369     1.4680989598
   22      C       6.2406296202    -0.2087333431     2.3518360153
   23      C       4.7375452307    -4.1903969820     0.7479264215
   24      C       5.5109551671    -3.1347035042     1.2887862474
   25      N       7.1991604576    -1.0697280721     2.5578935566
   26      S       6.6010331903     1.4973428768     2.5081792225
   27      C       8.3436155553    -0.4021329742     2.8289457923
   28      C       8.2440402100     0.9984889171     2.8861827408
   29      C      -7.3429342595     0.7232035123     1.4216811762
   30      H      -5.7601652856     1.4538682465    -0.6256371726
   31      H      -3.1763399541     1.1442741069    -0.7239892199
   32      H      -3.6697292685    -1.1180377961     2.9552803867
   33      H      -0.9348331549     1.5797633179     0.6893127353
   34      H       5.1170125518    -5.1662150904     0.4748649424
   35      H       6.5710128333    -3.1932410954     1.5044273720
   36      H       9.2305074037    -1.0071322147     2.9578789852
   37      H       9.0548987805     1.6614484318     3.1550285339
   38      H      -7.7323383129     0.6493400655     0.3993296347
   39      C      -7.7089846734     2.1463680320     1.7484285469
   40      H      -7.9309315592    -0.0005517686     2.0003887612
   41      H      -7.0429507566     2.7619829553     1.1314463041
   42      H      -7.4889336461     2.3594261167     2.8022030949
   43      C      -9.1998220608     2.6655417997     1.4255114006
   44      H      -9.5195451068     2.3658591840     0.4201380850
   45      C      -9.4876536715     4.1539788741     1.7979896410
   46      H      -9.8975121645     2.0097665076     1.9602620765
   47      H     -10.4956625644     4.4349242730     1.4689170734
   48      H      -8.8533398309     4.8883019714     1.2872533683
   49      C      -9.2588459179     4.4891008978     3.2741404602
   50      H      -9.9361478820     3.9495316554     3.9475326803
   51      C      -9.6600300730     5.9914595086     3.4737071871
   52      H      -8.2296935337     4.2864351365     3.5944808406
   53      H      -9.9978394572     6.1996446262     4.4966107879
   54      H     -10.5644119667     6.3017576396     2.9367551780
   55      H      -8.8118929908     6.6018082225     3.1415401549
   56      C      -4.8322128391    -1.8280974834    -2.6732265369
   57      C      -4.6436658524    -0.6092539325    -3.3021442042
   58      N      -3.7771009414    -2.4940251299    -2.1387471143
   59      C      -3.3515754715    -0.0539638867    -3.3238792606
   60      C      -2.5353406676    -1.9916473814    -2.2029812192
   61      C      -2.2492584979    -0.7229141115    -2.7383846951
   62      C      -0.8977138930    -0.0653147161    -2.6613118964
   63      C       0.2797512043    -0.8997132193    -2.4869786455
   64      C      -0.5663197532     1.3349023878    -2.7504858050
   65      N       1.5418581665    -0.4885776966    -2.3298716821
   66      N      -1.5385914829     2.2740289139    -3.0386993575
   67      C       0.7164047109     1.7695091084    -2.4455072030
   68      C       1.7599726045     0.8486652636    -2.1703932905
   69      S      -0.6882506269     3.6453092664    -3.0629196657
   70      N       0.7662949884     3.1492526250    -2.5334946364
   71      C       3.1352121154     1.0979508093    -1.8838274093
   72      S       4.4712433719     0.0200791598    -2.1964680799
   73      C       3.6616582700     2.2794792264    -1.2881546418
   74      C       5.5858536049     1.0150187577    -1.3114363149
   75      S       2.7559253124     3.5224583368    -0.3248682147
   76      C       4.9853530217     2.1812268651    -0.9294393258
   77      C       6.9631560715     0.6241382082    -0.9100483337
   78      C       4.3202305557     3.9581763679     0.3895832554
   79      C       5.3718090142     3.2163429833    -0.0373897825
   80      N       7.8078060097     1.6293562355    -0.9440659651
   81      S       7.6522809951    -1.0049934809    -0.8618738640
   82      C       9.0873766447     1.1739916246    -0.5975532506
   83      C       9.1651469912    -0.1876456334    -0.5612661894
   84      C      -6.2679762873    -2.4208997988    -2.5541730373
   85      H      -5.4535081170    -0.0376517717    -3.7454561443
   86      H      -3.2575394164     0.9128286427    -3.8091620909
   87      H      -1.7209326294    -2.5958330188    -1.8050286305
   88      H       0.0791123190    -1.9703851845    -2.4921342919
   89      H       4.3273466886     4.6353873838     1.2333916463
   90      H       6.3791945404     3.3668295101     0.3333853607
   91      H       9.9556518833     1.8192832111    -0.5889000218
   92      H      10.0928696369    -0.7442041364    -0.5336559501
   93      H      -6.8495850926    -1.9692461249    -3.3667935862
   94      C      -6.8893998116    -2.0862798269    -1.2033239422
   95      H      -6.1859474460    -3.5141135639    -2.5799399339
   96      H      -6.8578915965    -1.0037109383    -1.0299087355
   97      H      -6.2061859107    -2.5724689391    -0.4967633200
   98      C      -8.3028760401    -2.7268428343    -1.0917668507
   99      H      -8.9724219023    -2.2816017120    -1.8385698243
  100      C      -8.9014857236    -2.3168268300     0.2395382695
  101      H      -8.3051805480    -3.8112486807    -1.2505612136
  102      H      -9.0946996566    -1.2372580436     0.1992317983
  103      H      -8.2174741089    -2.4918660977     1.0800359589
  104      C     -10.2168760592    -3.1239849572     0.7436513745
  105      H      -9.9299112097    -4.1708203764     0.9073608129
  106      C     -11.2006051347    -3.1831125625    -0.4987583938
  107      H     -10.7900409597    -2.6854092592     1.5688558062
  108      H     -11.4631803543    -2.3067490389    -1.1052888782
  109      H     -12.1196184802    -3.6642900489    -0.1424387378
  110      H     -10.9598094672    -3.9979982874    -1.1913338064
 ----------------------------------------------------------------

   10   -5663.4750286114      3.96E-06 Convergence criterion met
 Total energy in the final basis set = -5663.4750286114

                    Orbital Energies (a.u.)
 --------------------------------------------------------------

 Alpha MOs
 -- Occupied --
-88.993 -88.984 -88.928 -88.926 -88.923 -88.920 -88.904 -88.903
-14.389 -14.387 -14.386 -14.385 -14.347 -14.343 -14.343 -14.338
-14.327 -14.320 -10.269 -10.264 -10.261 -10.261 -10.260 -10.260
-10.258 -10.255 -10.238 -10.237 -10.237 -10.236 -10.236 -10.232
-10.229 -10.229 -10.229 -10.228 -10.228 -10.228 -10.228 -10.227
-10.223 -10.222 -10.222 -10.221 -10.219 -10.219 -10.217 -10.215
-10.215 -10.204 -10.202 -10.201 -10.200 -10.194 -10.192 -10.190
-10.185 -10.185 -10.183 -10.182 -10.182 -10.179 -10.178 -10.177
-10.176 -10.173 -10.172 -10.167  -8.048  -8.039  -7.989  -7.987
 -7.982  -7.980  -7.964  -7.963  -6.013  -6.008  -6.006  -6.004
 -5.998  -5.997  -5.953  -5.950  -5.949  -5.947  -5.946  -5.946
 -5.944  -5.944  -5.942  -5.940  -5.939  -5.937  -5.929  -5.927
 -5.925  -5.924  -5.920  -5.918  -1.039  -1.025  -0.975  -0.966
 -0.957  -0.950  -0.939  -0.934  -0.912  -0.910  -0.900  -0.898
 -0.842  -0.841  -0.828  -0.826  -0.808  -0.806  -0.805  -0.804
 -0.801  -0.798  -0.791  -0.787  -0.785  -0.779  -0.762  -0.760
 -0.745  -0.743  -0.736  -0.735  -0.724  -0.721  -0.707  -0.705
 -0.691  -0.688  -0.671  -0.665  -0.649  -0.648  -0.645  -0.639
 -0.633  -0.632  -0.626  -0.621  -0.611  -0.610  -0.599  -0.593
 -0.587  -0.584  -0.583  -0.578  -0.574  -0.573  -0.567  -0.559
 -0.554  -0.548  -0.540  -0.538  -0.520  -0.516  -0.511  -0.508
 -0.504  -0.502  -0.497  -0.496  -0.488  -0.483  -0.476  -0.473
 -0.470  -0.469  -0.467  -0.464  -0.461  -0.460  -0.448  -0.446
 -0.445  -0.440  -0.438  -0.433  -0.431  -0.429  -0.429  -0.426
 -0.424  -0.422  -0.422  -0.419  -0.418  -0.414  -0.413  -0.411
 -0.410  -0.403  -0.402  -0.400  -0.397  -0.393  -0.392  -0.391
 -0.390  -0.389  -0.388  -0.386  -0.384  -0.383  -0.382  -0.380
 -0.378  -0.373  -0.371  -0.367  -0.364  -0.362  -0.357  -0.356
 -0.354  -0.351  -0.347  -0.346  -0.344  -0.341  -0.339  -0.338
 -0.337  -0.335  -0.333  -0.328  -0.327  -0.325  -0.320  -0.315
 -0.314  -0.312  -0.311  -0.306  -0.306  -0.303  -0.303  -0.299
 -0.292  -0.290  -0.288  -0.286  -0.285  -0.281  -0.277  -0.274
 -0.273  -0.271  -0.267  -0.261  -0.254  -0.248  -0.245  -0.243
 -0.241  -0.239  -0.232  -0.228  -0.193  -0.183

          Ground-State Mulliken Net Atomic Charges

     Atom                 Charge (a.u.)
  ----------------------------------------
      1 C                     0.277202
      2 C                    -0.118870
      3 N                    -0.464599
      4 C                    -0.095242
      5 C                     0.089706
      6 C                     0.035762
      7 C                     0.032135
      8 C                     0.050174
      9 C                     0.191580
     10 N                    -0.536026
     11 N                    -0.525784
     12 C                     0.245018
     13 C                     0.311757
     14 S                     0.604033
     15 N                    -0.572511
     16 C                    -0.220782
     17 S                     0.335211
     18 C                    -0.127604
     19 C                    -0.223328
     20 S                     0.295438
     21 C                     0.132846
     22 C                     0.066232
     23 C                    -0.319929
     24 C                    -0.044508
     25 N                    -0.424517
     26 S                     0.277210
     27 C                     0.124680
     28 C                    -0.315486
     29 C                    -0.224515
     30 H                     0.093443
     31 H                     0.113671
     32 H                     0.106225
     33 H                     0.114118
     34 H                     0.122552
     35 H                     0.128063
     36 H                     0.104037
     37 H                     0.127173
     38 H                     0.091914
     39 C                    -0.172964
     40 H                     0.114186
     41 H                     0.087359
     42 H                     0.106034
     43 C                    -0.192292
     44 H                     0.082126
     45 C                    -0.166634
     46 H                     0.093755
     47 H                     0.092952
     48 H                     0.090932
     49 C                    -0.174283
     50 H                     0.094298
     51 C                    -0.329401
     52 H                     0.105445
     53 H                     0.098215
     54 H                     0.101548
     55 H                     0.106034
     56 C                     0.271150
     57 C                    -0.115547
     58 N                    -0.496990
     59 C                    -0.090956
     60 C                     0.083575
     61 C                     0.037111
     62 C                     0.040527
     63 C                     0.056783
     64 C                     0.180023
     65 N                    -0.522203
     66 N                    -0.555656
     67 C                     0.248612
     68 C                     0.314372
     69 S                     0.616407
     70 N                    -0.549161
     71 C                    -0.222736
     72 S                     0.324976
     73 C                    -0.142544
     74 C                    -0.212136
     75 S                     0.270488
     76 C                     0.167019
     77 C                     0.026185
     78 C                    -0.308464
     79 C                    -0.044815
     80 N                    -0.409917
     81 S                     0.292914
     82 C                     0.114648
     83 C                    -0.298155
     84 C                    -0.220851
     85 H                     0.085864
     86 H                     0.121646
     87 H                     0.094911
     88 H                     0.106857
     89 H                     0.127670
     90 H                     0.122397
     91 H                     0.114589
     92 H                     0.126179
     93 H                     0.091770
     94 C                    -0.179999
     95 H                     0.115419
     96 H                     0.095334
     97 H                     0.124621
     98 C                    -0.168567
     99 H                     0.093995
    100 C                    -0.181525
    101 H                     0.093981
    102 H                     0.092219
    103 H                     0.098630
    104 C                    -0.188195
    105 H                     0.101067
    106 C                    -0.330730
    107 H                     0.102313
    108 H                     0.102720
    109 H                     0.087508
    110 H                     0.100887
  ----------------------------------------
  Sum of atomic charges =     0.000000

                    Cartesian Multipole Moments
 -----------------------------------------------------------------
    Charge (ESU x 10^10)
                 0.0000
    Dipole Moment (Debye)
         X       2.3392      Y       1.6312      Z      -0.8282
       Tot       2.9696
    Quadrupole Moments (Debye-Ang)
        XX    -383.1096     XY     -11.3754     YY    -434.5653
        XZ      21.5009     YZ       2.7288     ZZ    -452.3733

 Total job time:  128.63s(wall), 1376.50s(cpu)
        *  Thank you very much for using Q-Chem.  Have a nice day.  *
