 Q-Chem 4.4, Q-Chem, Inc., Pleasanton, CA (2016)
 Q-Chem 4.4.2 for Intel X86 Linux

User input:
--------------------------------------------------------------
$comment
SP
$end

$rem
MEM_STATIC 5000
MEM_TOTAL 20000
JOBTYPE SP
EXCHANGE B3LYP
BASIS 6-31g(d,p)
$end

$molecule
0 1
C          27.326000     30.690000      0.488000
C          25.995000     30.573000      1.046000
N          27.772000     29.932000     -0.494000
C          25.102000     29.674000      0.466000
C          26.872000     29.102000     -1.078000
C          25.502000     28.902000     -0.641000
C          24.556000     27.939000     -1.386000
C          25.082000     26.839000     -2.117000
C          23.099000     28.042000     -1.451000
N          24.350000     25.985000     -2.832000
N          22.370000     29.043000     -0.894000
C          22.375000     27.130000     -2.234000
C          23.017000     26.163000     -3.012000
S          20.856000     28.796000     -1.391000
N          21.060000     27.459000     -2.378000
C          22.313000     25.174000     -3.895000
S          20.591000     25.142000     -4.109000
C          22.872000     24.090000     -4.585000
C          20.707000     23.797000     -5.286000
S          24.564000     23.510000     -4.574000
C          21.968000     23.317000     -5.348000
C          19.644000     23.346000     -6.033000
C          24.088000     22.155000     -5.649000
C          22.648000     22.183000     -5.877000
N          18.879000     24.239000     -6.544000
S          19.247000     21.715000     -6.430000
C          17.745000     23.670000     -7.060000
C          17.770000     22.306000     -7.135000
C          28.464000     31.572000      1.074000
H          25.668000     31.196000      1.873000
H          24.112000     29.558000      0.897000
H          27.294000     28.560000     -1.924000
H          26.147000     26.616000     -2.072000
H          24.855000     21.454000     -5.951000
H          22.188000     21.487000     -6.569000
H          16.931000     24.284000     -7.423000
H          17.046000     21.541000     -7.383000
H          29.178000     31.964000      0.339000
C          29.126000     30.814000      2.201000
H          28.006000     32.452000      1.541000
H          29.186000     29.742000      1.979000
H          28.446000     30.822000      3.061000
C          30.585000     31.311000      2.418000
H          31.412000     30.848000      1.866000
C          31.086000     30.997000      3.831000
H          30.487000     32.381000      2.198000
H          30.918000     29.917000      3.920000
H          30.598000     31.582000      4.621000
C          32.635000     31.220000      3.941000
H          33.073000     30.648000      3.114000
C          33.101000     30.535000      5.286000
H          32.851000     32.286000      3.797000
H          32.672000     31.067000      6.145000
H          34.193000     30.614000      5.352000
H          32.890000     29.462000      5.371000
C          32.414000     24.190000      8.167000
C          31.416000     23.628000      7.331000
N          32.246000     25.449000      8.633000
C          30.206000     24.272000      7.169000
C          31.074000     26.067000      8.476000
C          29.929000     25.518000      7.779000
C          28.661000     26.326000      7.668000
C          27.423000     25.707000      7.982000
C          28.621000     27.683000      7.372000
N          26.222000     26.267000      7.876000
N          29.722000     28.441000      7.140000
C          27.342000     28.242000      7.174000
C          26.170000     27.511000      7.432000
S          29.066000     29.890000      6.778000
N          27.473000     29.499000      6.874000
C          24.737000     27.953000      7.195000
S          23.289000     27.522000      8.227000
C          24.356000     28.751000      6.119000
C          22.229000     28.363000      7.090000
S          25.289000     29.511000      4.845000
C          22.985000     29.012000      6.112000
C          20.846000     28.651000      7.377000
C          23.882000     30.343000      4.338000
C          22.759000     29.894000      4.971000
N          20.226000     29.528000      6.614000
S          19.877000     27.780000      8.547000
C          18.905000     29.618000      6.982000
C          18.549000     28.748000      8.017000
C          33.744000     23.528000      8.569000
H          31.644000     22.752000      6.731000
H          29.448000     23.807000      6.545000
H          30.904000     27.017000      8.980000
H          27.357000     24.644000      8.211000
H          23.925000     30.999000      3.478000
H          21.779000     30.149000      4.582000
H          18.253000     30.306000      6.459000
H          17.551000     28.517000      8.365000
H          34.281000     23.051000      7.739000
C          33.728000     22.745000      9.880000
H          34.482000     24.321000      8.737000
H          33.245000     23.291000     10.700000
H          34.803000     22.726000     10.098000
C          33.129000     21.354000      9.732000
H          32.064000     21.420000      9.476000
C          33.225000     20.539000     11.042000
H          33.623000     20.832000      8.903000
H          34.205000     20.801000     11.460000
H          33.128000     19.470000     10.819000
C          32.165000     20.978000     12.054000
H          32.129000     22.069000     12.158000
C          32.374000     20.394000     13.443000
H          31.151000     20.710000     11.731000
H          32.043000     19.359000     13.589000
H          31.638000     21.055000     13.917000
H          33.353000     20.622000     13.883000
$end

--------------------------------------------------------------

             Standard Nuclear Orientation (Angstroms)
    I     Atom           X                Y                Z
 ----------------------------------------------------------------
    1      C       0.6329387983    -0.2547471481    -4.8597587222
    2      C       0.9466413479    -1.3016804288    -3.9099506278
    3      N       1.2236632701     0.9237379030    -4.8644044524
    4      C       1.9845444367    -1.0947866152    -3.0033072975
    5      C       2.2648631983     1.0850760296    -4.0101043187
    6      C       2.7046141824     0.1145553789    -3.0239107583
    7      C       3.9114565973     0.3954070603    -2.1063249483
    8      C       4.2709230504     1.7322048989    -1.7826083936
    9      C       4.7938812897    -0.6080671664    -1.5129876591
   10      N       5.3242710945     2.0751828242    -1.0415354952
   11      N       4.6987214654    -1.9450888158    -1.7298025962
   12      C       5.9015717647    -0.1952739811    -0.7569237745
   13      C       6.2252721602     1.1562670954    -0.6116937068
   14      S       5.9871250575    -2.5880188096    -1.0039436520
   15      N       6.7541085706    -1.2106507655    -0.4400752615
   16      C       7.4076779114     1.6720770075     0.1559538516
   17      S       8.5715976873     0.6388897933     0.9240156563
   18      C       7.7137918799     3.0036031580     0.4673528704
   19      C       9.5447836160     2.0429585840     1.4618910874
   20      S       6.7683366454     4.4803575971     0.1142300504
   21      C       8.9002949973     3.2026412344     1.2086410711
   22      C      10.7907603124     1.9308986970     2.0331735513
   23      C       7.9981052765     5.4545162307     0.9842358380
   24      C       9.0083414184     4.5774204111     1.5643167469
   25      N      11.5953861818     1.0873804229     1.4994609586
   26      S      11.4370315006     2.8417535802     3.3477289641
   27      C      12.7000766000     0.9035391394     2.2880257704
   28      C      12.8258275690     1.7938406752     3.3167608525
   29      C      -0.5493363369    -0.2910198427    -5.8683586410
   30      H       0.4221821465    -2.2524038946    -3.9173288008
   31      H       2.2065069461    -1.8623448702    -2.2678455585
   32      H       2.7457130697     2.0568853001    -4.1193478211
   33      H       3.6364959468     2.5579468720    -2.1014052631
   34      H       7.8457338730     6.5239461824     1.0474539827
   35      H       9.8778368656     4.9937360933     2.0598355860
   36      H      13.4279420206     0.1372659820     2.0547911726
   37      H      13.4877550884     1.8900971320     4.1673439782
   38      H      -0.3805502201     0.2512109667    -6.8070715876
   39      C      -1.8061896173     0.1408021022    -5.1494799033
   40      H      -0.7193023667    -1.3354401354    -6.1556751928
   41      H      -1.5972206813     0.9361162991    -4.4243072949
   42      H      -2.1197366439    -0.6785456892    -4.4918922978
   43      C      -2.8486504096     0.7110513285    -6.1549003707
   44      H      -2.8448313481     1.7788975191    -6.4052839326
   45      C      -4.2726096795     0.6411830665    -5.5948785643
   46      H      -2.6744591568     0.0782818490    -7.0336291078
   47      H      -4.1866643779     1.1588115957    -4.6319563915
   48      H      -4.6723370996    -0.3773561639    -5.5096446173
   49      C      -5.2633839888     1.4854930260    -6.4705137397
   50      H      -4.8055029031     2.4784264514    -6.5564504841
   51      C      -6.5902719881     1.6501190877    -5.6292810149
   52      H      -5.3310841538     1.0315868785    -7.4670747749
   53      H      -7.0771567294     0.6743493935    -5.5037312135
   54      H      -7.2747843100     2.2984874351    -6.1897472201
   55      H      -6.4768112701     2.1365661383    -4.6527714489
   56      C      -8.1846931143     3.8951531934     0.8087930866
   57      C      -6.8968249278     3.9323332732     1.4010406496
   58      N      -8.5419792021     2.8097178262     0.0844742928
   59      C      -6.1079629457     2.7998019156     1.4132675566
   60      C      -7.7774862292     1.7163558044     0.1008139270
   61      C      -6.5197080347     1.5892527160     0.8079729037
   62      C      -5.7487530004     0.2954470440     0.7393855996
   63      C      -5.2599403653    -0.2768617755     1.9426834941
   64      C      -5.5622706338    -0.4439174535    -0.4221777722
   65      N      -4.5171566207    -1.3751952577     2.0384585989
   66      N      -6.0475955899    -0.0829815719    -1.6365804964
   67      C      -4.6995199384    -1.5545917036    -0.3242494947
   68      C      -4.1963032648    -1.9903064026     0.9132619923
   69      S      -5.4593518144    -1.2602571736    -2.6004126489
   70      N      -4.6020207200    -2.1170050814    -1.4910378624
   71      C      -3.2066360515    -3.1145351345     1.1616378472
   72      S      -3.1951404959    -4.2453453072     2.5999094507
   73      C      -2.1548645266    -3.4060149684     0.2964458652
   74      C      -1.7067483473    -4.9884232540     2.0031063199
   75      S      -1.6923368628    -2.7180923747    -1.2475734564
   76      C      -1.3782717284    -4.4744103149     0.7472740025
   77      C      -1.1651313603    -6.2055315040     2.5538336091
   78      C      -0.5194208436    -3.9518728456    -1.4235727795
   79      C      -0.3670814594    -4.6874080862    -0.2837483975
   80      N      -0.2367372144    -6.8365526550     1.8641999260
   81      S      -1.5156077826    -6.8049387870     4.1614340528
   82      C       0.2145696721    -7.9244497872     2.5722726086
   83      C      -0.3770362477    -8.0605215975     3.8317756448
   84      C      -9.2374668556     5.0171781679     0.8472041031
   85      H      -6.4865338447     4.8777147751     1.7434950889
   86      H      -5.1365552834     2.8469679806     1.8973207728
   87      H      -8.1468369847     0.8043132873    -0.3652058863
   88      H      -5.3478764347     0.2389063887     2.8982024361
   89      H       0.1209443536    -3.9653507734    -2.2962329422
   90      H       0.4979319284    -5.3312929215    -0.1658070654
   91      H       0.9760650754    -8.5613269372     2.1404286014
   92      H      -0.0760068506    -8.7273683343     4.6287484998
   93      H      -8.8393740875     6.0184577607     0.6380168066
   94      C     -10.2545914517     4.9366468519     1.9834427502
   95      H      -9.8436507937     4.9466936385    -0.0634494887
   96      H     -10.6794525622     3.9328424300     2.1086414695
   97      H     -11.0479323381     5.5700789110     1.5676494549
   98      C      -9.7098983586     5.4601436306     3.3043691512
   99      H      -8.8939461738     4.8203729987     3.6635801906
  100      C     -10.7885630406     5.4741474075     4.4115400495
  101      H      -9.2853733856     6.4602332381     3.1515283053
  102      H     -11.7071402398     5.7866286989     3.8993492923
  103      H     -10.4889474261     6.1637973674     5.2093573320
  104      C     -11.0333976919     4.0722904619     4.9730719699
  105      H     -11.1607772670     3.3309806379     4.1751827615
  106      C     -12.2547527686     3.9853702641     5.8757317374
  107      H     -10.1726294358     3.7008470238     5.5435601658
  108      H     -12.1245522954     4.3429448877     6.9039779264
  109      H     -12.2584232867     2.8886254577     5.8964767835
  110      H     -13.1887742071     4.3088924576     5.3993260881
 ----------------------------------------------------------------

    9   -5663.4892816044      9.35E-06 Convergence criterion met
 Total energy in the final basis set = -5663.4892816044

                    Orbital Energies (a.u.)
 --------------------------------------------------------------

 Alpha MOs
 -- Occupied --
-88.991 -88.989 -88.929 -88.927 -88.922 -88.922 -88.910 -88.908
-14.391 -14.389 -14.385 -14.381 -14.349 -14.348 -14.340 -14.334
-14.331 -14.326 -10.266 -10.266 -10.264 -10.264 -10.256 -10.255
-10.255 -10.255 -10.248 -10.242 -10.241 -10.240 -10.238 -10.236
-10.235 -10.235 -10.233 -10.233 -10.232 -10.231 -10.230 -10.229
-10.228 -10.228 -10.227 -10.226 -10.225 -10.225 -10.222 -10.216
-10.212 -10.212 -10.211 -10.210 -10.208 -10.207 -10.198 -10.196
-10.184 -10.184 -10.182 -10.181 -10.179 -10.177 -10.176 -10.176
-10.174 -10.173 -10.172 -10.169  -8.046  -8.044  -7.988  -7.987
 -7.984  -7.981  -7.969  -7.969  -6.011  -6.010  -6.006  -6.004
 -6.004  -6.002  -5.952  -5.952  -5.949  -5.948  -5.948  -5.945
 -5.945  -5.944  -5.944  -5.941  -5.941  -5.938  -5.934  -5.933
 -5.930  -5.930  -5.925  -5.925  -1.046  -1.036  -0.984  -0.970
 -0.969  -0.957  -0.943  -0.935  -0.914  -0.910  -0.907  -0.903
 -0.848  -0.835  -0.835  -0.827  -0.809  -0.809  -0.809  -0.808
 -0.807  -0.804  -0.800  -0.792  -0.781  -0.781  -0.770  -0.766
 -0.748  -0.748  -0.739  -0.738  -0.729  -0.717  -0.712  -0.707
 -0.694  -0.692  -0.677  -0.676  -0.653  -0.651  -0.647  -0.642
 -0.632  -0.632  -0.626  -0.622  -0.613  -0.607  -0.602  -0.597
 -0.595  -0.591  -0.585  -0.584  -0.581  -0.579  -0.572  -0.562
 -0.549  -0.545  -0.543  -0.538  -0.524  -0.523  -0.518  -0.511
 -0.507  -0.506  -0.503  -0.500  -0.487  -0.485  -0.480  -0.480
 -0.473  -0.472  -0.472  -0.470  -0.466  -0.463  -0.452  -0.449
 -0.446  -0.446  -0.440  -0.438  -0.437  -0.434  -0.433  -0.429
 -0.428  -0.428  -0.420  -0.420  -0.419  -0.418  -0.416  -0.414
 -0.412  -0.409  -0.407  -0.405  -0.400  -0.399  -0.398  -0.397
 -0.396  -0.393  -0.391  -0.389  -0.386  -0.386  -0.384  -0.383
 -0.374  -0.373  -0.372  -0.369  -0.366  -0.363  -0.361  -0.358
 -0.356  -0.353  -0.352  -0.350  -0.348  -0.346  -0.345  -0.345
 -0.341  -0.340  -0.338  -0.330  -0.329  -0.329  -0.321  -0.317
 -0.316  -0.315  -0.312  -0.307  -0.304  -0.303  -0.298  -0.298
 -0.296  -0.295  -0.291  -0.290  -0.287  -0.284  -0.282  -0.279
 -0.277  -0.269  -0.268  -0.263  -0.256  -0.253  -0.252  -0.245
 -0.244  -0.242  -0.231  -0.230  -0.195  -0.191

          Ground-State Mulliken Net Atomic Charges

     Atom                 Charge (a.u.)
  ----------------------------------------
      1 C                     0.245098
      2 C                    -0.123834
      3 N                    -0.455740
      4 C                    -0.066272
      5 C                     0.058607
      6 C                     0.036412
      7 C                     0.043172
      8 C                     0.059691
      9 C                     0.210043
     10 N                    -0.518974
     11 N                    -0.544249
     12 C                     0.201296
     13 C                     0.314359
     14 S                     0.608442
     15 N                    -0.555383
     16 C                    -0.224001
     17 S                     0.363638
     18 C                    -0.142879
     19 C                    -0.230367
     20 S                     0.285402
     21 C                     0.210750
     22 C                     0.023408
     23 C                    -0.301642
     24 C                    -0.113924
     25 N                    -0.403381
     26 S                     0.256561
     27 C                     0.114047
     28 C                    -0.304160
     29 C                    -0.221437
     30 H                     0.085195
     31 H                     0.119743
     32 H                     0.102326
     33 H                     0.116657
     34 H                     0.139770
     35 H                     0.106218
     36 H                     0.113027
     37 H                     0.139565
     38 H                     0.120466
     39 C                    -0.176820
     40 H                     0.091594
     41 H                     0.108496
     42 H                     0.101058
     43 C                    -0.178251
     44 H                     0.100434
     45 C                    -0.180288
     46 H                     0.089812
     47 H                     0.099417
     48 H                     0.088771
     49 C                    -0.188334
     50 H                     0.093847
     51 C                    -0.325600
     52 H                     0.099504
     53 H                     0.100993
     54 H                     0.098828
     55 H                     0.118279
     56 C                     0.263196
     57 C                    -0.117262
     58 N                    -0.473529
     59 C                    -0.079883
     60 C                     0.102819
     61 C                     0.024283
     62 C                     0.004488
     63 C                     0.051245
     64 C                     0.211450
     65 N                    -0.469549
     66 N                    -0.547043
     67 C                     0.250147
     68 C                     0.256315
     69 S                     0.611017
     70 N                    -0.554166
     71 C                    -0.212147
     72 S                     0.308055
     73 C                    -0.118397
     74 C                    -0.238531
     75 S                     0.282674
     76 C                     0.165562
     77 C                     0.081357
     78 C                    -0.297291
     79 C                    -0.073556
     80 N                    -0.436401
     81 S                     0.272360
     82 C                     0.121125
     83 C                    -0.314952
     84 C                    -0.241095
     85 H                     0.093834
     86 H                     0.095280
     87 H                     0.105585
     88 H                     0.109537
     89 H                     0.131633
     90 H                     0.114721
     91 H                     0.114500
     92 H                     0.131994
     93 H                     0.098326
     94 C                    -0.171459
     95 H                     0.117697
     96 H                     0.110938
     97 H                     0.094843
     98 C                    -0.169847
     99 H                     0.091123
    100 C                    -0.164196
    101 H                     0.080000
    102 H                     0.088534
    103 H                     0.086355
    104 C                    -0.184553
    105 H                     0.096471
    106 C                    -0.312973
    107 H                     0.092658
    108 H                     0.105115
    109 H                     0.098818
    110 H                     0.103385
  ----------------------------------------
  Sum of atomic charges =     0.000000

                    Cartesian Multipole Moments
 -----------------------------------------------------------------
    Charge (ESU x 10^10)
                 0.0000
    Dipole Moment (Debye)
         X       1.8905      Y      -0.6072      Z       2.7019
       Tot       3.3530
    Quadrupole Moments (Debye-Ang)
        XX    -432.1005     XY      -6.5448     YY    -410.2975
        XZ      25.0484     YZ       5.5862     ZZ    -434.5988

 Total job time:  84.71s(wall), 914.19s(cpu)
        *  Thank you very much for using Q-Chem.  Have a nice day.  *
