 Q-Chem 4.4, Q-Chem, Inc., Pleasanton, CA (2016)
 Q-Chem 4.4.2 for Intel X86 Linux

User input:
--------------------------------------------------------------
$comment
SP
$end

$rem
MEM_STATIC 5000
MEM_TOTAL 20000
JOBTYPE SP
EXCHANGE B3LYP
BASIS 6-31g(d,p)
$end

$molecule
0 1
C          28.174000     26.064000      3.183000
C          27.717000     25.031000      3.971000
N          27.372000     27.026000      2.626000
C          26.428000     25.149000      4.367000
C          26.079000     27.050000      2.986000
C          25.561000     26.178000      3.902000
C          24.086000     26.085000      4.285000
C          23.691000     25.474000      5.444000
C          23.035000     26.672000      3.554000
N          22.444000     25.389000      5.927000
N          23.186000     27.250000      2.381000
C          21.715000     26.531000      3.994000
C          21.438000     25.835000      5.215000
S          21.686000     27.593000      1.956000
N          20.795000     26.895000      3.131000
C          20.053000     25.551000      5.694000
S          18.627000     25.909000      4.764000
C          19.645000     24.991000      6.896000
C          17.512000     25.579000      6.117000
S          20.589000     24.405000      8.316000
C          18.295000     25.026000      7.094000
C          16.117000     25.682000      6.083000
C          19.023000     23.936000      9.079000
C          17.928000     24.377000      8.336000
N          15.308000     25.289000      7.050000
S          15.291000     26.086000      4.615000
C          13.977000     25.516000      6.750000
C          13.776000     25.917000      5.442000
C          29.648000     26.209000      2.780000
H          28.374000     24.323000      4.468000
H          26.055000     24.403000      5.063000
H          25.538000     27.883000      2.540000
H          24.465000     25.137000      6.131000
H          18.978000     23.394000     10.014000
H          16.909000     24.271000      8.691000
H          13.164000     25.164000      7.371000
H          12.857000     26.040000      4.883000
H          30.040000     25.278000      2.351000
C          30.604000     26.554000      3.952000
H          29.751000     26.861000      1.904000
H          30.253000     25.963000      4.806000
H          30.419000     27.559000      4.351000
C          32.142000     26.429000      3.604000
H          32.406000     25.628000      2.903000
C          32.896000     26.355000      4.912000
H          32.367000     27.362000      3.072000
H          32.501000     25.488000      5.457000
H          32.622000     27.246000      5.491000
C          34.405000     26.205000      4.563000
H          34.544000     25.397000      3.834000
C          35.091000     26.033000      5.961000
H          34.655000     27.171000      4.107000
H          34.753000     25.201000      6.590000
H          34.830000     26.979000      6.451000
H          36.178000     25.916000      5.873000
C          32.414000     24.190000      8.167000
C          31.416000     23.628000      7.331000
N          32.246000     25.449000      8.633000
C          30.206000     24.272000      7.169000
C          31.074000     26.067000      8.476000
C          29.929000     25.518000      7.779000
C          28.661000     26.326000      7.668000
C          27.423000     25.707000      7.982000
C          28.621000     27.683000      7.372000
N          26.222000     26.267000      7.876000
N          29.722000     28.441000      7.140000
C          27.342000     28.242000      7.174000
C          26.170000     27.511000      7.432000
S          29.066000     29.890000      6.778000
N          27.473000     29.499000      6.874000
C          24.737000     27.953000      7.195000
S          23.289000     27.522000      8.227000
C          24.356000     28.751000      6.119000
C          22.229000     28.363000      7.090000
S          25.289000     29.511000      4.845000
C          22.985000     29.012000      6.112000
C          20.846000     28.651000      7.377000
C          23.882000     30.343000      4.338000
C          22.759000     29.894000      4.971000
N          20.226000     29.528000      6.614000
S          19.877000     27.780000      8.547000
C          18.905000     29.618000      6.982000
C          18.549000     28.748000      8.017000
C          33.744000     23.528000      8.569000
H          31.644000     22.752000      6.731000
H          29.448000     23.807000      6.545000
H          30.904000     27.017000      8.980000
H          27.357000     24.644000      8.211000
H          23.925000     30.999000      3.478000
H          21.779000     30.149000      4.582000
H          18.253000     30.306000      6.459000
H          17.551000     28.517000      8.365000
H          34.281000     23.051000      7.739000
C          33.728000     22.745000      9.880000
H          34.482000     24.321000      8.737000
H          33.245000     23.291000     10.700000
H          34.803000     22.726000     10.098000
C          33.129000     21.354000      9.732000
H          32.064000     21.420000      9.476000
C          33.225000     20.539000     11.042000
H          33.623000     20.832000      8.903000
H          34.205000     20.801000     11.460000
H          33.128000     19.470000     10.819000
C          32.165000     20.978000     12.054000
H          32.129000     22.069000     12.158000
C          32.374000     20.394000     13.443000
H          31.151000     20.710000     11.731000
H          32.043000     19.359000     13.589000
H          31.638000     21.055000     13.917000
H          33.353000     20.622000     13.883000
$end

--------------------------------------------------------------

             Standard Nuclear Orientation (Angstroms)
    I     Atom           X                Y                Z
 ----------------------------------------------------------------
    1      C       2.8470530198     2.8341536235    -2.1755079087
    2      C       2.6295241506     1.5050090791    -2.4634974415
    3      N       1.8633126952     3.7205283536    -1.8212596742
    4      C       1.3936535499     1.0524629059    -2.1471324316
    5      C       0.6316051962     3.2348018833    -1.5999195898
    6      C       0.3482134236     1.9004790290    -1.6837982139
    7      C      -1.0442682147     1.2909279116    -1.5409510141
    8      C      -1.2118488887    -0.0390577745    -1.2658477746
    9      C      -2.2443384857     2.0263692620    -1.5908345269
   10      N      -2.3689978983    -0.6782806461    -1.0469338875
   11      N      -2.3141247793     3.3025944204    -1.9057840754
   12      C      -3.4710850872     1.3710486178    -1.4441081521
   13      C      -3.5038262352    -0.0384981475    -1.1909443046
   14      S      -3.8866138008     3.5731975810    -1.9540148416
   15      N      -4.5286989282     2.0878351134    -1.7463250989
   16      C      -4.7708656983    -0.8253615200    -1.1294704721
   17      S      -6.3335825170    -0.1519120570    -1.4913018770
   18      C      -4.9527927184    -2.1577102355    -0.7879774860
   19      C      -7.2232609652    -1.5778953252    -0.8931564286
   20      S      -3.7748379476    -3.4302477670    -0.2940111016
   21      C      -6.2616150001    -2.5246417440    -0.6643874262
   22      C      -8.6134030818    -1.7350766916    -0.8688888858
   23      C      -5.1611132177    -4.5803420366    -0.1939608820
   24      C      -6.3865839893    -3.9362158855    -0.3638958378
   25      N      -9.2403546962    -2.8559792565    -0.5614346399
   26      S      -9.6569674581    -0.5207606527    -1.5298926303
   27      C     -10.6161098847    -2.7229430190    -0.6132904094
   28      C     -11.0250666132    -1.5198472328    -1.1586168468
   29      C       4.2292462650     3.4915378689    -2.2916878845
   30      H       3.4297212114     0.7989899988    -2.6663365946
   31      H       1.2096312549    -0.0106022588    -2.2739758408
   32      H      -0.0648628521     4.0022698475    -1.2661364540
   33      H      -0.3227187239    -0.6321954191    -1.0603014669
   34      H      -5.0205811146    -5.6357294404    -0.0031149858
   35      H      -7.3321189430    -4.4518423373    -0.2385363003
   36      H     -11.2942495717    -3.5580926134    -0.4985484388
   37      H     -12.0130316392    -1.1844751131    -1.4477909272
   38      H       4.6863433030     3.2942004248    -3.2697401485
   39      C       5.2657239392     2.9978448502    -1.2483632781
   40      H       4.1383368698     4.5825321495    -2.3591857479
   41      H       5.1019144328     1.9179725782    -1.1543402926
   42      H       4.9988448358     3.3014715594    -0.2285410556
   43      C       6.7532879864     3.4540948106    -1.5332530447
   44      H       7.0343638679     3.5211538352    -2.5911743254
   45      C       7.6629727061     2.5565623772    -0.7259332558
   46      H       6.7867653672     4.4858867625    -1.1612011223
   47      H       7.4550806396     1.5265814697    -1.0432016264
   48      H       7.3453921838     2.6366073035     0.3214126382
   49      C       9.1251970023     2.9925651447    -1.0311932997
   50      H       9.2808414304     3.0540404899    -2.1154541511
   51      C       9.9918421043     1.9530800122    -0.2419018919
   52      H       9.1880850206     3.9925002465    -0.5842404059
   53      H       9.8455441468     0.8921771344    -0.4768295223
   54      H       9.6690085896     2.1372943384     0.7900770826
   55      H      11.0660836082     2.1384678693    -0.3628917006
   56      C       7.8689741499    -1.3516610648    -0.2810434573
   57      C       6.8605315416    -1.2559095752    -1.2733232354
   58      N       7.5932772776    -0.9344827183     0.9761019050
   59      C       5.5652666986    -0.9409813721    -0.9152880229
   60      C       6.3394444777    -0.6330388236     1.3184349128
   61      C       5.2014641875    -0.6598317778     0.4226012246
   62      C       3.8335831251    -0.2896788983     0.9372829174
   63      C       2.7355856668    -1.1384868553     0.6400832647
   64      C       3.5787255484     0.7860265355     1.7790491768
   65      N       1.4670692685    -0.9173508634     0.9705405542
   66      N       4.5334454028     1.6368304689     2.2320741942
   67      C       2.2224852924     1.0619200567     2.0474167104
   68      C       1.1974829157     0.1960283573     1.6301509766
   69      S       3.6524090001     2.7109923936     3.0870198163
   70      N       2.1486171737     2.1076697432     2.8143333253
   71      C      -0.2994795266     0.3997518648     1.7805576888
   72      S      -1.5421848344    -0.9077909986     2.0863422183
   73      C      -0.9100563488     1.6477759333     1.6837441133
   74      C      -2.8338252679     0.2926699848     1.9671431501
   75      S      -0.2468300881     3.2544289496     1.4602222745
   76      C      -2.2942500253     1.5746657482     1.8464517245
   77      C      -4.1978632560     0.0132032264     2.3403732373
   78      C      -1.8025034051     3.9131979947     1.7337654633
   79      C      -2.7713211871     2.9524192757     1.7751823484
   80      N      -5.0161957816     1.0331569808     2.5007609438
   81      S      -4.8943757107    -1.5919008649     2.4111775914
   82      C      -6.2832237980     0.5782555215     2.7769305800
   83      C      -6.3931219631    -0.8155811908     2.7753141515
   84      C       9.3136880521    -1.8373391751    -0.4947407057
   85      H       7.1283325709    -1.3188184362    -2.3238874095
   86      H       4.8057126652    -0.9006829915    -1.6909288616
   87      H       6.1072985552    -0.4406480507     2.3646232616
   88      H       2.8391239932    -1.9962825793    -0.0234167812
   89      H      -1.9510361336     4.9840129232     1.6782819751
   90      H      -3.8162314893     3.2326156717     1.6951920987
   91      H      -7.0789957551     1.2920626971     2.9478203351
   92      H      -7.3022878580    -1.4014205770     2.8013638939
   93      H       9.8048344924    -1.4192905390    -1.3828896301
   94      C       9.5601181482    -3.3233662800    -0.2436199151
   95      H       9.9550055853    -1.3300357080     0.2353771026
   96      H       9.1117491001    -3.6805567961     0.6918933835
   97      H      10.6465622922    -3.3083738193    -0.0922120285
   98      C       9.1371669737    -4.1999837962    -1.4133378445
   99      H       8.0497426297    -4.1548047964    -1.5532812403
  100      C       9.4978991787    -5.6856222671    -1.1846642559
  101      H       9.5920912031    -3.8188521448    -2.3361290505
  102      H      10.4778411419    -5.6600097667    -0.6918907291
  103      H       9.5170991858    -6.2124510296    -2.1459039839
  104      C       8.5192613341    -6.3577663682    -0.2198040191
  105      H       8.3519190400    -5.7510574546     0.6781346484
  106      C       8.9701165719    -7.7363928589     0.2386461458
  107      H       7.5181481974    -6.4647463778    -0.6564695263
  108      H       8.7992088220    -8.5610797336    -0.4633396800
  109      H       8.2157942268    -7.8052100343     1.0320911635
  110      H       9.9562370950    -7.7490675538     0.7197185583
 ----------------------------------------------------------------

   10   -5663.4884583109      3.09E-06 Convergence criterion met
 Total energy in the final basis set = -5663.4884583109

                    Orbital Energies (a.u.)
 --------------------------------------------------------------

 Alpha MOs
 -- Occupied --
-88.990 -88.980 -88.926 -88.921 -88.921 -88.921 -88.908 -88.906
-14.386 -14.385 -14.383 -14.380 -14.350 -14.343 -14.342 -14.335
-14.330 -14.323 -10.266 -10.265 -10.260 -10.259 -10.257 -10.257
-10.249 -10.248 -10.244 -10.243 -10.240 -10.239 -10.237 -10.235
-10.233 -10.230 -10.228 -10.228 -10.227 -10.227 -10.227 -10.226
-10.225 -10.225 -10.222 -10.221 -10.220 -10.217 -10.216 -10.215
-10.211 -10.210 -10.207 -10.205 -10.203 -10.197 -10.195 -10.194
-10.187 -10.183 -10.177 -10.177 -10.176 -10.176 -10.175 -10.174
-10.172 -10.170 -10.166 -10.165  -8.046  -8.037  -7.984  -7.984
 -7.981  -7.980  -7.968  -7.966  -6.011  -6.005  -6.004  -6.002
 -5.996  -5.994  -5.948  -5.947  -5.945  -5.945  -5.945  -5.944
 -5.942  -5.941  -5.941  -5.940  -5.938  -5.937  -5.932  -5.931
 -5.928  -5.928  -5.924  -5.922  -1.057  -1.047  -0.972  -0.970
 -0.966  -0.963  -0.939  -0.936  -0.925  -0.916  -0.913  -0.907
 -0.847  -0.838  -0.837  -0.832  -0.812  -0.807  -0.806  -0.804
 -0.803  -0.802  -0.799  -0.793  -0.785  -0.784  -0.768  -0.766
 -0.749  -0.745  -0.738  -0.736  -0.727  -0.722  -0.714  -0.704
 -0.695  -0.692  -0.675  -0.673  -0.655  -0.650  -0.649  -0.645
 -0.633  -0.632  -0.626  -0.622  -0.613  -0.608  -0.596  -0.596
 -0.595  -0.586  -0.585  -0.580  -0.579  -0.577  -0.572  -0.565
 -0.554  -0.549  -0.543  -0.541  -0.524  -0.523  -0.511  -0.510
 -0.509  -0.507  -0.500  -0.497  -0.487  -0.486  -0.482  -0.481
 -0.475  -0.474  -0.472  -0.468  -0.465  -0.464  -0.452  -0.450
 -0.448  -0.441  -0.438  -0.437  -0.434  -0.431  -0.431  -0.430
 -0.428  -0.427  -0.422  -0.421  -0.420  -0.419  -0.414  -0.409
 -0.408  -0.407  -0.406  -0.402  -0.399  -0.399  -0.398  -0.395
 -0.393  -0.391  -0.390  -0.389  -0.387  -0.381  -0.378  -0.377
 -0.374  -0.372  -0.370  -0.369  -0.368  -0.365  -0.360  -0.358
 -0.356  -0.352  -0.348  -0.347  -0.345  -0.345  -0.341  -0.340
 -0.337  -0.336  -0.333  -0.333  -0.332  -0.328  -0.322  -0.319
 -0.316  -0.314  -0.313  -0.307  -0.307  -0.305  -0.298  -0.297
 -0.295  -0.288  -0.287  -0.285  -0.284  -0.282  -0.280  -0.278
 -0.276  -0.272  -0.269  -0.264  -0.253  -0.249  -0.249  -0.247
 -0.246  -0.237  -0.234  -0.230  -0.196  -0.186

          Ground-State Mulliken Net Atomic Charges

     Atom                 Charge (a.u.)
  ----------------------------------------
      1 C                     0.244254
      2 C                    -0.095405
      3 N                    -0.494386
      4 C                    -0.085977
      5 C                     0.083939
      6 C                     0.050300
      7 C                     0.097119
      8 C                     0.018747
      9 C                     0.217591
     10 N                    -0.529524
     11 N                    -0.538475
     12 C                     0.219808
     13 C                     0.331338
     14 S                     0.574920
     15 N                    -0.557691
     16 C                    -0.229323
     17 S                     0.324283
     18 C                    -0.117754
     19 C                    -0.223158
     20 S                     0.259805
     21 C                     0.158691
     22 C                     0.071188
     23 C                    -0.307759
     24 C                    -0.058244
     25 N                    -0.458616
     26 S                     0.260242
     27 C                     0.118277
     28 C                    -0.308262
     29 C                    -0.225681
     30 H                     0.090044
     31 H                     0.095325
     32 H                     0.128463
     33 H                     0.124582
     34 H                     0.129730
     35 H                     0.128271
     36 H                     0.117445
     37 H                     0.135907
     38 H                     0.095682
     39 C                    -0.197703
     40 H                     0.112167
     41 H                     0.092242
     42 H                     0.100939
     43 C                    -0.182510
     44 H                     0.085074
     45 C                    -0.173271
     46 H                     0.094300
     47 H                     0.100475
     48 H                     0.104673
     49 C                    -0.184860
     50 H                     0.089586
     51 C                    -0.317142
     52 H                     0.097629
     53 H                     0.108663
     54 H                     0.111351
     55 H                     0.085218
     56 C                     0.264863
     57 C                    -0.118965
     58 N                    -0.470550
     59 C                    -0.081821
     60 C                     0.103752
     61 C                     0.026607
     62 C                     0.007063
     63 C                     0.046572
     64 C                     0.218446
     65 N                    -0.478677
     66 N                    -0.551160
     67 C                     0.255743
     68 C                     0.263977
     69 S                     0.607394
     70 N                    -0.550088
     71 C                    -0.223566
     72 S                     0.327111
     73 C                    -0.115871
     74 C                    -0.243840
     75 S                     0.291407
     76 C                     0.161397
     77 C                     0.075983
     78 C                    -0.287549
     79 C                    -0.090627
     80 N                    -0.440674
     81 S                     0.299104
     82 C                     0.122993
     83 C                    -0.319282
     84 C                    -0.241818
     85 H                     0.095466
     86 H                     0.090794
     87 H                     0.108031
     88 H                     0.106868
     89 H                     0.134684
     90 H                     0.116641
     91 H                     0.112947
     92 H                     0.137010
     93 H                     0.100621
     94 C                    -0.176580
     95 H                     0.123793
     96 H                     0.111406
     97 H                     0.096277
     98 C                    -0.171122
     99 H                     0.090312
    100 C                    -0.163411
    101 H                     0.080517
    102 H                     0.088929
    103 H                     0.086920
    104 C                    -0.184733
    105 H                     0.096305
    106 C                    -0.312906
    107 H                     0.092550
    108 H                     0.105489
    109 H                     0.099028
    110 H                     0.103711
  ----------------------------------------
  Sum of atomic charges =     0.000000

                    Cartesian Multipole Moments
 -----------------------------------------------------------------
    Charge (ESU x 10^10)
                 0.0000
    Dipole Moment (Debye)
         X      -2.0430      Y      -1.1633      Z      -0.9636
       Tot       2.5407
    Quadrupole Moments (Debye-Ang)
        XX    -396.7848     XY      -3.1054     YY    -437.7067
        XZ      -9.0507     YZ       5.3624     ZZ    -449.0330

 Total job time:  129.71s(wall), 1403.71s(cpu)
        *  Thank you very much for using Q-Chem.  Have a nice day.  *
