 Q-Chem 4.4, Q-Chem, Inc., Pleasanton, CA (2016)
 Q-Chem 4.4.2 for Intel X86 Linux

User input:
--------------------------------------------------------------
$comment
SP
$end

$rem
MEM_STATIC 5000
MEM_TOTAL 20000
JOBTYPE SP
EXCHANGE B3LYP
BASIS 6-31g(d,p)
$end

$molecule
0 1
C          -4.540000    -14.114000      5.883000
C          -4.659000    -15.180000      4.961000
N          -3.899000    -14.316000      7.064000
C          -4.276000    -16.527000      5.313000
C          -3.385000    -15.592000      7.339000
C          -3.571000    -16.765000      6.555000
C          -2.995000    -18.139000      6.809000
C          -1.570000    -18.317000      6.959000
C          -3.694000    -19.327000      6.719000
N          -0.906000    -19.433000      7.174000
N          -5.014000    -19.474000      6.551000
C          -3.041000    -20.555000      6.919000
C          -1.600000    -20.563000      7.053000
S          -5.362000    -21.048000      6.677000
N          -3.862000    -21.641000      6.759000
C          -0.779000    -21.762000      6.965000
S          -1.429000    -23.318000      6.429000
C           0.537000    -21.988000      7.311000
C           0.025000    -24.267000      6.776000
S           1.677000    -20.841000      7.738000
C           0.951000    -23.323000      7.146000
C           0.376000    -25.615000      6.465000
C           2.822000    -22.196000      7.764000
C           2.332000    -23.410000      7.411000
N          -0.663000    -26.462000      6.513000
S           1.810000    -26.255000      5.684000
C          -0.223000    -27.747000      6.132000
C           1.096000    -27.841000      5.740000
C          -5.100000    -12.739000      5.415000
H          -5.164000    -15.079000      4.005000
H          -4.397000    -17.338000      4.602000
H          -2.820000    -15.675000      8.267000
H          -0.970000    -17.425000      7.137000
H           3.831000    -21.926000      8.046000
H           2.938000    -24.308000      7.368000
H          -0.946000    -28.537000      6.283000
H           1.692000    -28.735000      5.616000
H          -6.138000    -12.895000      5.098000
C          -4.302000    -12.137000      4.239000
H          -5.169000    -11.991000      6.214000
H          -3.967000    -12.830000      3.458000
H          -3.421000    -11.568000      4.561000
C          -5.211000    -11.151000      3.360000
H          -6.048000    -11.730000      2.950000
C          -4.375000    -10.336000      2.342000
H          -5.689000    -10.383000      3.982000
H          -3.571000    -10.932000      1.894000
H          -3.796000     -9.562000      2.863000
C          -5.207000     -9.692000      1.184000
H          -5.747000    -10.489000      0.658000
C          -4.242000     -8.999000      0.225000
H          -5.880000     -8.877000      1.476000
H          -3.393000     -9.675000      0.065000
H          -3.818000     -8.098000      0.686000
H          -4.764000     -8.718000     -0.698000
C         -11.120000    -19.321000     10.700000
C          -9.783000    -19.406000     10.367000
N         -12.099000    -19.186000      9.840000
C          -9.480000    -19.529000      9.023000
C         -11.810000    -19.317000      8.523000
C         -10.501000    -19.442000      8.049000
C         -10.193000    -19.206000      6.627000
C          -8.927000    -18.843000      6.118000
C         -11.039000    -19.726000      5.601000
N          -8.540000    -18.894000      4.832000
N         -12.277000    -20.276000      5.826000
C         -10.664000    -19.835000      4.261000
C          -9.386000    -19.291000      3.848000
S         -12.903000    -20.869000      4.435000
N         -11.669000    -20.457000      3.461000
C          -8.890000    -19.331000      2.502000
S          -9.482000    -20.255000      1.144000
C          -7.686000    -18.820000      2.187000
C          -7.951000    -20.032000      0.229000
S          -6.655000    -17.772000      3.146000
C          -7.240000    -19.121000      0.911000
C          -7.495000    -20.639000     -0.995000
C          -5.582000    -17.676000      1.778000
C          -6.035000    -18.400000      0.678000
N          -8.474000    -21.302000     -1.673000
S          -5.883000    -20.676000     -1.566000
C          -7.806000    -21.950000     -2.698000
C          -6.486000    -21.829000     -2.770000
C         -11.374000    -19.308000     12.200000
H          -9.026000    -19.179000     11.112000
H          -8.438000    -19.490000      8.720000
H         -12.694000    -19.147000      7.909000
H          -8.118000    -18.573000      6.795000
H          -4.708000    -17.041000      1.845000
H          -5.440000    -18.502000     -0.223000
H          -8.422000    -22.539000     -3.365000
H          -5.775000    -22.163000     -3.515000
H         -10.566000    -19.845000     12.711000
C         -12.685000    -20.027000     12.668000
H         -11.320000    -18.289000     12.603000
H         -12.701000    -21.006000     12.173000
H         -13.564000    -19.462000     12.334000
C         -12.798000    -20.228000     14.215000
H         -11.897000    -20.678000     14.647000
C         -14.042000    -21.018000     14.684000
H         -12.915000    -19.201000     14.584000
H         -13.906000    -22.069000     14.400000
H         -14.948000    -20.685000     14.162000
C         -14.223000    -21.008000     16.203000
H         -13.532000    -21.662000     16.748000
C         -15.626000    -21.510000     16.469000
H         -14.175000    -19.994000     16.618000
H         -15.997000    -21.454000     17.500000
H         -15.585000    -22.594000     16.307000
H         -16.370000    -21.077000     15.788000
$end

--------------------------------------------------------------

             Standard Nuclear Orientation (Angstroms)
    I     Atom           X                Y                Z
 ----------------------------------------------------------------
    1      C       0.0946952833    -3.2817543084    -4.6473958075
    2      C       0.5397852802    -3.2707811358    -3.3048700222
    3      N       0.2828991996    -2.1843014096    -5.4262555002
    4      C       1.0285278767    -2.0627643702    -2.6829149045
    5      C       0.9046508802    -1.0600410687    -4.8628191387
    6      C       1.2596347576    -0.8870368823    -3.4956187151
    7      C       1.9650809899     0.2960492964    -2.8736695958
    8      C       3.2395122228     0.7391181180    -3.3877941450
    9      C       1.6020376533     0.9110005817    -1.6912654972
   10      N       3.9874024392     1.7360456586    -2.9642699981
   11      N       0.4948177794     0.6857399656    -0.9732440450
   12      C       2.3679445832     1.9694078258    -1.1740095836
   13      C       3.6286552577     2.2905952064    -1.8080034809
   14      S       0.4485310212     1.7677958994     0.2273676708
   15      N       1.8993944373     2.4470260767     0.0223927598
   16      C       4.6472035706     3.1437461372    -1.2129582527
   17      S       4.5665744563     3.6823327022     0.4705961592
   18      C       5.7602156891     3.7460209445    -1.7616996131
   19      C       5.9496839174     4.7848473093     0.3893818763
   20      S       6.4079605526     3.4721713916    -3.2792539002
   21      C       6.4648454569     4.5712504676    -0.8654077385
   22      C       6.6534194502     5.5019972296     1.4030279150
   23      C       7.7100854428     4.5611992297    -2.7632934964
   24      C       7.6387585011     5.0318490722    -1.4936848192
   25      N       5.8624433925     5.9411634701     2.3933429605
   26      S       8.3711994267     5.5688662040     1.7504145767
   27      C       6.6600848462     6.5786520635     3.3666683967
   28      C       8.0207495681     6.5522321396     3.1427163878
   29      C      -0.5177162941    -4.6201815123    -5.1541636831
   30      H       0.4125909732    -4.1156665348    -2.6346817868
   31      H       1.3429982024    -2.0660281451    -1.6441749168
   32      H       1.0930077172    -0.2385700646    -5.5534746906
   33      H       3.5397316688     0.3697936882    -4.3680062393
   34      H       8.4683011844     4.7417649279    -3.5136333646
   35      H       8.3851067672     5.6862968511    -1.0576213257
   36      H       6.1067008950     7.1033924551     4.1335084869
   37      H       8.7870062782     7.1430612287     3.6260378561
   38      H      -1.3122795340    -4.9062934265    -4.4548223999
   39      C       0.5185011409    -5.7615691039    -5.2294749904
   40      H      -1.0244180809    -4.5392891440    -6.1233776554
   41      H       1.2490604296    -5.8255080762    -4.4142266028
   42      H       1.0857510002    -5.7689199283    -6.1685061734
   43      C      -0.1815257602    -7.1968439922    -5.0843325340
   44      H      -0.6744511497    -7.2408300516    -4.1050471890
   45      C       0.7883168015    -8.3575301169    -5.4184853812
   46      H      -0.9985045437    -7.3208658431    -5.8070747064
   47      H       1.8027642088    -8.1704422069    -5.0466916592
   48      H       0.9670077435    -8.4001095136    -6.5010815859
   49      C       0.3294854834    -9.7595645616    -4.8972395299
   50      H       0.1926624195    -9.6995408858    -3.8104269391
   51      C       1.4192520219   -10.7766945831    -5.2274067765
   52      H      -0.5526127648   -10.1863874816    -5.3893196814
   53      H       2.3846960979   -10.3184319463    -4.9798384186
   54      H       1.4537755817   -10.9707992824    -6.3068647375
   55      H       1.2283443455   -11.7190933733    -4.6993795241
   56      C      -6.6059600693     2.7084430408    -1.0652886674
   57      C      -5.2524587028     2.7220926933    -1.3364541847
   58      N      -7.2056682482     1.8399677653    -0.2891657415
   59      C      -4.4583319884     1.8626553302    -0.5988877942
   60      C      -6.4325773347     1.0035338890     0.4442371560
   61      C      -5.0446090290     0.9359335228     0.2933856635
   62      C      -4.2893350271    -0.2176896368     0.8143067590
   63      C      -3.0255180508    -0.6405624878     0.3478829151
   64      C      -4.5757172934    -0.7542926193     2.1061405087
   65      N      -2.1909099166    -1.4924116522     0.9675185043
   66      N      -5.6721114886    -0.4118667829     2.8587581509
   67      C      -3.7204986516    -1.6091939504     2.8031704856
   68      C      -2.5174356240    -2.0796172584     2.1465653814
   69      S      -5.6098379705    -1.1348702704     4.3256575905
   70      N      -4.2138902946    -1.9363644519     4.1017978955
   71      C      -1.5639994225    -2.9663403710     2.7499007204
   72      S      -1.4165334092    -3.4408425852     4.4236705443
   73      C      -0.4575443896    -3.3541456721     2.0901080949
   74      C       0.2653300207    -4.0290620741     4.1865034386
   75      S      -0.0845575076    -3.1883712515     0.3829626332
   76      C       0.4771515303    -4.0242310904     2.8614848313
   77      C       1.2514194740    -4.4568731435     5.1452350377
   78      C       1.3735641990    -4.0941853494     0.6751114119
   79      C       1.5121913687    -4.4907244567     2.0028629866
   80      N       0.7449963149    -4.6634157508     6.3936619420
   81      S       2.9325107775    -4.6082028324     4.8677726899
   82      C       1.8586170691    -4.8859970942     7.1855327403
   83      C       3.0593277674    -4.8197031661     6.6232837437
   84      C      -7.3908860039     3.7626217111    -1.8316329820
   85      H      -4.8847070338     3.2329684659    -2.2215347771
   86      H      -3.4086132922     1.7717001010    -0.8613983752
   87      H      -7.0435327173     0.3068117586     1.0175292224
   88      H      -2.5941754153    -0.2002238045    -0.5497558624
   89      H       2.0149940989    -4.3334809412    -0.1632771038
   90      H       2.4042970805    -4.9947872152     2.3582474748
   91      H       1.6628844842    -5.0786617148     8.2323541669
   92      H       4.0459637567    -5.0381386276     7.0117903380
   93      H      -6.7373670499     4.6152390991    -2.0514296296
   94      C      -8.6090040619     4.3842999086    -1.0671654449
   95      H      -7.6946725322     3.3919635583    -2.8185535862
   96      H      -8.2449087913     4.6666757862    -0.0714644367
   97      H      -9.3977104622     3.6323600432    -0.9408695502
   98      C      -9.2402249396     5.6359472298    -1.7609364352
   99      H      -8.4906767809     6.3870107382    -2.0348089679
  100      C     -10.3836211410     6.3154801032    -0.9719641920
  101      H      -9.6883760768     5.2092206675    -2.6673822412
  102      H      -9.9446622415     6.8233616066    -0.1041367535
  103      H     -11.0811163084     5.5750559690    -0.5602827705
  104      C     -11.1086507999     7.3966121678    -1.7755234323
  105      H     -10.5503782375     8.3339887312    -1.8845139109
  106      C     -12.3795775542     7.7124490291    -1.0164705605
  107      H     -11.4212947839     7.0371676506    -2.7633383837
  108      H     -13.1068746133     8.3762114132    -1.5004090744
  109      H     -12.0651211292     8.3173965659    -0.1573217756
  110      H     -12.8915800480     6.8135531071    -0.6495569906
 ----------------------------------------------------------------

    9   -5663.4941178285      8.61E-06 Convergence criterion met
 Total energy in the final basis set = -5663.4941178285

                    Orbital Energies (a.u.)
 --------------------------------------------------------------

 Alpha MOs
 -- Occupied --
-88.992 -88.991 -88.934 -88.932 -88.924 -88.916 -88.912 -88.911
-14.386 -14.384 -14.375 -14.371 -14.352 -14.352 -14.345 -14.345
-14.337 -14.324 -10.271 -10.270 -10.267 -10.267 -10.258 -10.258
-10.254 -10.253 -10.241 -10.240 -10.239 -10.239 -10.238 -10.237
-10.234 -10.234 -10.234 -10.232 -10.228 -10.227 -10.227 -10.226
-10.225 -10.224 -10.224 -10.223 -10.223 -10.222 -10.221 -10.217
-10.214 -10.209 -10.205 -10.204 -10.203 -10.203 -10.199 -10.195
-10.193 -10.190 -10.183 -10.182 -10.182 -10.180 -10.175 -10.175
-10.174 -10.174 -10.171 -10.165  -8.047  -8.047  -7.995  -7.993
 -7.983  -7.975  -7.972  -7.971  -6.012  -6.012  -6.006  -6.006
 -6.005  -6.005  -5.959  -5.957  -5.956  -5.953  -5.952  -5.950
 -5.947  -5.943  -5.940  -5.939  -5.936  -5.936  -5.935  -5.933
 -5.932  -5.932  -5.929  -5.928  -1.042  -1.019  -0.973  -0.967
 -0.961  -0.958  -0.945  -0.922  -0.921  -0.920  -0.902  -0.881
 -0.849  -0.849  -0.834  -0.831  -0.815  -0.812  -0.809  -0.807
 -0.802  -0.802  -0.801  -0.795  -0.788  -0.781  -0.769  -0.765
 -0.753  -0.752  -0.745  -0.743  -0.726  -0.717  -0.713  -0.712
 -0.698  -0.697  -0.680  -0.676  -0.654  -0.651  -0.645  -0.640
 -0.634  -0.632  -0.626  -0.625  -0.608  -0.607  -0.599  -0.597
 -0.595  -0.591  -0.583  -0.579  -0.578  -0.576  -0.575  -0.567
 -0.547  -0.546  -0.545  -0.543  -0.528  -0.522  -0.518  -0.518
 -0.509  -0.504  -0.502  -0.497  -0.487  -0.483  -0.482  -0.476
 -0.475  -0.473  -0.471  -0.468  -0.467  -0.460  -0.450  -0.448
 -0.447  -0.442  -0.441  -0.438  -0.437  -0.434  -0.434  -0.432
 -0.429  -0.428  -0.426  -0.422  -0.419  -0.419  -0.415  -0.413
 -0.411  -0.410  -0.408  -0.403  -0.402  -0.400  -0.399  -0.397
 -0.394  -0.393  -0.391  -0.389  -0.387  -0.384  -0.384  -0.382
 -0.379  -0.379  -0.372  -0.367  -0.364  -0.363  -0.361  -0.357
 -0.354  -0.352  -0.352  -0.345  -0.345  -0.342  -0.341  -0.337
 -0.334  -0.333  -0.333  -0.332  -0.331  -0.327  -0.323  -0.320
 -0.316  -0.310  -0.309  -0.305  -0.303  -0.301  -0.301  -0.299
 -0.297  -0.296  -0.292  -0.291  -0.290  -0.288  -0.287  -0.282
 -0.275  -0.273  -0.267  -0.262  -0.259  -0.257  -0.251  -0.250
 -0.246  -0.244  -0.235  -0.231  -0.199  -0.196

          Ground-State Mulliken Net Atomic Charges

     Atom                 Charge (a.u.)
  ----------------------------------------
      1 C                     0.280771
      2 C                    -0.118361
      3 N                    -0.493709
      4 C                    -0.057535
      5 C                     0.052221
      6 C                     0.040973
      7 C                     0.007449
      8 C                     0.058650
      9 C                     0.245316
     10 N                    -0.493991
     11 N                    -0.556550
     12 C                     0.180635
     13 C                     0.300047
     14 S                     0.621631
     15 N                    -0.538839
     16 C                    -0.235853
     17 S                     0.341069
     18 C                    -0.090464
     19 C                    -0.190148
     20 S                     0.288908
     21 C                     0.116234
     22 C                     0.022072
     23 C                    -0.310981
     24 C                    -0.071486
     25 N                    -0.414985
     26 S                     0.280212
     27 C                     0.113234
     28 C                    -0.305478
     29 C                    -0.227993
     30 H                     0.089637
     31 H                     0.105197
     32 H                     0.104302
     33 H                     0.105622
     34 H                     0.118962
     35 H                     0.114556
     36 H                     0.117210
     37 H                     0.142466
     38 H                     0.114604
     39 C                    -0.184647
     40 H                     0.119774
     41 H                     0.102255
     42 H                     0.107376
     43 C                    -0.189271
     44 H                     0.092338
     45 C                    -0.181702
     46 H                     0.095394
     47 H                     0.087345
     48 H                     0.094486
     49 C                    -0.174650
     50 H                     0.096198
     51 C                    -0.316010
     52 H                     0.097582
     53 H                     0.098187
     54 H                     0.102188
     55 H                     0.098269
     56 C                     0.296063
     57 C                    -0.113326
     58 N                    -0.483812
     59 C                    -0.091908
     60 C                     0.077467
     61 C                     0.048192
     62 C                     0.049189
     63 C                     0.036079
     64 C                     0.228020
     65 N                    -0.529263
     66 N                    -0.569683
     67 C                     0.178026
     68 C                     0.300883
     69 S                     0.629858
     70 N                    -0.560619
     71 C                    -0.212719
     72 S                     0.349870
     73 C                    -0.134834
     74 C                    -0.213689
     75 S                     0.325891
     76 C                     0.172793
     77 C                     0.030804
     78 C                    -0.320053
     79 C                    -0.102403
     80 N                    -0.430225
     81 S                     0.287915
     82 C                     0.135377
     83 C                    -0.307156
     84 C                    -0.242520
     85 H                     0.100598
     86 H                     0.093440
     87 H                     0.126102
     88 H                     0.121569
     89 H                     0.131513
     90 H                     0.102850
     91 H                     0.111802
     92 H                     0.133629
     93 H                     0.100269
     94 C                    -0.177089
     95 H                     0.113287
     96 H                     0.092650
     97 H                     0.111255
     98 C                    -0.179925
     99 H                     0.085873
    100 C                    -0.170273
    101 H                     0.090222
    102 H                     0.092439
    103 H                     0.093616
    104 C                    -0.172490
    105 H                     0.096093
    106 C                    -0.317744
    107 H                     0.093327
    108 H                     0.091962
    109 H                     0.098214
    110 H                     0.101874
  ----------------------------------------
  Sum of atomic charges =     0.000000

                    Cartesian Multipole Moments
 -----------------------------------------------------------------
    Charge (ESU x 10^10)
                 0.0000
    Dipole Moment (Debye)
         X       5.1766      Y       0.1147      Z       1.2224
       Tot       5.3202
    Quadrupole Moments (Debye-Ang)
        XX    -416.1987     XY       7.3252     YY    -418.9270
        XZ      17.1909     YZ       2.8031     ZZ    -438.8795

 Total job time:  84.71s(wall), 915.00s(cpu)
        *  Thank you very much for using Q-Chem.  Have a nice day.  *
