 Q-Chem 4.4, Q-Chem, Inc., Pleasanton, CA (2016)
 Q-Chem 4.4.2 for Intel X86 Linux

User input:
--------------------------------------------------------------
$comment
SP
$end

$rem
MEM_STATIC 5000
MEM_TOTAL 20000
JOBTYPE SP
EXCHANGE B3LYP
BASIS 6-31g(d,p)
$end

$molecule
0 1
C          -7.283000    -18.629000     -5.995000
C          -7.111000    -17.500000     -5.159000
N          -8.338000    -19.469000     -5.808000
C          -8.071000    -17.269000     -4.190000
C          -9.215000    -19.260000     -4.802000
C          -9.108000    -18.159000     -3.967000
C         -10.054000    -18.028000     -2.871000
C          -9.566000    -17.613000     -1.625000
C         -11.453000    -18.297000     -2.924000
N         -10.309000    -17.595000     -0.499000
N         -12.180000    -18.660000     -4.066000
C         -12.216000    -18.231000     -1.704000
C         -11.612000    -17.894000     -0.476000
S         -13.693000    -19.032000     -3.518000
N         -13.515000    -18.619000     -1.889000
C         -12.386000    -17.683000      0.802000
S         -13.971000    -18.308000      1.082000
C         -11.873000    -16.991000      1.927000
C         -13.967000    -17.700000      2.734000
S         -10.364000    -16.295000      2.260000
C         -12.774000    -16.965000      2.943000
C         -15.018000    -17.953000      3.692000
C         -10.892000    -16.062000      3.951000
C         -12.175000    -16.447000      4.156000
N         -16.186000    -17.697000      3.077000
S         -14.938000    -17.987000      5.407000
C         -17.177000    -18.034000      3.954000
C         -16.683000    -18.289000      5.223000
C          -6.542000    -18.764000     -7.351000
H          -6.254000    -16.840000     -5.257000
H          -8.135000    -16.360000     -3.600000
H         -10.085000    -19.907000     -4.702000
H          -8.509000    -17.353000     -1.600000
H         -10.168000    -15.796000      4.710000
H         -12.675000    -16.410000      5.117000
H         -18.229000    -18.150000      3.728000
H         -17.147000    -18.499000      6.178000
H          -7.280000    -18.925000     -8.147000
C          -5.381000    -19.762000     -7.407000
H          -6.071000    -17.797000     -7.569000
H          -4.718000    -19.597000     -6.549000
H          -4.860000    -19.543000     -8.347000
C          -5.717000    -21.243000     -7.211000
H          -4.762000    -21.783000     -7.201000
C          -6.707000    -21.721000     -8.366000
H          -6.169000    -21.174000     -6.215000
H          -6.190000    -21.663000     -9.332000
H          -7.595000    -21.091000     -8.496000
C          -7.310000    -23.176000     -8.235000
H          -8.050000    -23.278000     -9.039000
C          -7.963000    -23.459000     -6.884000
H          -6.425000    -23.796000     -8.422000
H          -8.543000    -22.599000     -6.526000
H          -7.265000    -23.613000     -6.052000
H          -8.575000    -24.358000     -7.027000
C         -11.120000    -19.321000     10.700000
C          -9.783000    -19.406000     10.367000
N         -12.099000    -19.186000      9.840000
C          -9.480000    -19.529000      9.023000
C         -11.810000    -19.317000      8.523000
C         -10.501000    -19.442000      8.049000
C         -10.193000    -19.206000      6.627000
C          -8.927000    -18.843000      6.118000
C         -11.039000    -19.726000      5.601000
N          -8.540000    -18.894000      4.832000
N         -12.277000    -20.276000      5.826000
C         -10.664000    -19.835000      4.261000
C          -9.386000    -19.291000      3.848000
S         -12.903000    -20.869000      4.435000
N         -11.669000    -20.457000      3.461000
C          -8.890000    -19.331000      2.502000
S          -9.482000    -20.255000      1.144000
C          -7.686000    -18.820000      2.187000
C          -7.951000    -20.032000      0.229000
S          -6.655000    -17.772000      3.146000
C          -7.240000    -19.121000      0.911000
C          -7.495000    -20.639000     -0.995000
C          -5.582000    -17.676000      1.778000
C          -6.035000    -18.400000      0.678000
N          -8.474000    -21.302000     -1.673000
S          -5.883000    -20.676000     -1.566000
C          -7.806000    -21.950000     -2.698000
C          -6.486000    -21.829000     -2.770000
C         -11.374000    -19.308000     12.200000
H          -9.026000    -19.179000     11.112000
H          -8.438000    -19.490000      8.720000
H         -12.694000    -19.147000      7.909000
H          -8.118000    -18.573000      6.795000
H          -4.708000    -17.041000      1.845000
H          -5.440000    -18.502000     -0.223000
H          -8.422000    -22.539000     -3.365000
H          -5.775000    -22.163000     -3.515000
H         -10.566000    -19.845000     12.711000
C         -12.685000    -20.027000     12.668000
H         -11.320000    -18.289000     12.603000
H         -12.701000    -21.006000     12.173000
H         -13.564000    -19.462000     12.334000
C         -12.798000    -20.228000     14.215000
H         -11.897000    -20.678000     14.647000
C         -14.042000    -21.018000     14.684000
H         -12.915000    -19.201000     14.584000
H         -13.906000    -22.069000     14.400000
H         -14.948000    -20.685000     14.162000
C         -14.223000    -21.008000     16.203000
H         -13.532000    -21.662000     16.748000
C         -15.626000    -21.510000     16.469000
H         -14.175000    -19.994000     16.618000
H         -15.997000    -21.454000     17.500000
H         -15.585000    -22.594000     16.307000
H         -16.370000    -21.077000     15.788000
$end

--------------------------------------------------------------

             Standard Nuclear Orientation (Angstroms)
    I     Atom           X                Y                Z
 ----------------------------------------------------------------
    1      C      -8.5903797808    -0.4099369306    -0.8239584909
    2      C      -7.8293001900    -0.5690571274    -2.0065656191
    3      N      -8.1018870201     0.3216487551     0.2151522863
    4      C      -6.6083812573     0.0780580638    -2.0738031767
    5      C      -6.8716512641     0.8757395489     0.1492024805
    6      C      -6.0919965585     0.7708263118    -0.9918526245
    7      C      -4.7562014323     1.3440039050    -0.9715590917
    8      C      -3.7139775332     0.6075272523    -1.5497082803
    9      C      -4.3808595206     2.5952051032    -0.4006081211
   10      N      -2.4139246943     0.9582310706    -1.4653373851
   11      N      -5.2497875641     3.5331604768     0.1735571622
   12      C      -2.9844339778     2.9467128133    -0.3636888403
   13      C      -1.9962904988     2.0907468452    -0.8902472191
   14      S      -4.2692927432     4.6845683081     0.8374448876
   15      N      -2.7673878615     4.1185958124     0.3084355678
   16      C      -0.5389126307     2.4674311236    -0.9953172141
   17      S       0.2045788099     3.7099351365    -0.0547566070
   18      C       0.3850662842     1.8067210345    -1.8423019501
   19      C       1.7850834614     3.3419328584    -0.7369320756
   20      S       0.2493254783     0.4646854907    -2.8684116093
   21      C       1.6291819251     2.3388926884    -1.7252438323
   22      C       3.0155476604     3.9679200370    -0.3121122230
   23      C       2.0243499389     0.4932775702    -3.0709570545
   24      C       2.6075731501     1.5327684379    -2.4262490417
   25      N       2.7938144179     5.2935463666    -0.2729433130
   26      S       4.6220459989     3.3662037149    -0.3888035267
   27      C       3.9273810738     5.8696576823     0.2249536527
   28      C       4.9786065179     4.9701291770     0.2970337049
   29      C     -10.1105677719    -0.7153371377    -0.7815181185
   30      H      -8.1751971270    -1.1847056944    -2.8317838635
   31      H      -6.0124000570     0.1626519964    -2.9772008053
   32      H      -6.5196398492     1.5057411267     0.9644907581
   33      H      -4.0109408828    -0.3204919988    -2.0355755857
   34      H       2.5282148783    -0.3475649191    -3.5293422975
   35      H       3.6762339078     1.7127354607    -2.4046607192
   36      H       4.0339464733     6.8863413146     0.5802481888
   37      H       6.0264203315     5.0630862065     0.5517221475
   38      H     -10.6436001483     0.1732779995    -0.4203801620
   39      C     -10.5372960569    -1.9977292475    -0.0601066912
   40      H     -10.4468802957    -0.8681698771    -1.8149541543
   41      H      -9.9221479725    -2.8347894478    -0.4120740978
   42      H     -11.5882182505    -2.1459980843    -0.3368392246
   43      C     -10.2718935986    -2.0787197458     1.4457734748
   44      H     -10.5649396784    -3.0874598555     1.7624632065
   45      C     -11.0742107263    -0.9191034923     2.1902104237
   46      H      -9.1841667636    -1.9466268347     1.4238008729
   47      H     -12.1512912936    -1.0919549618     2.0726144156
   48      H     -10.9144534885     0.0841939430     1.7776381498
   49      C     -10.7881179240    -0.7272853323     3.7326603263
   50      H     -11.3271747257     0.1788624614     4.0371828056
   51      C      -9.3066322278    -0.5957704553     4.0784969482
   52      H     -11.2483831488    -1.6294427085     4.1532099564
   53      H      -8.7735122485     0.0260077055     3.3481963208
   54      H      -8.7322376030    -1.5290260062     4.0310744646
   55      H      -9.2692986990    -0.1876295309     5.0959551505
   56      C       8.4618094931    -2.0740599487    -0.2091466919
   57      C       7.7324598473    -3.2303382904    -0.4008560833
   58      N       7.9468710168    -0.8763590054    -0.0802404628
   59      C       6.3585728089    -3.1310645798    -0.2749468449
   60      C       6.6028451747    -0.7741041352     0.0550720541
   61      C       5.7472987443    -1.8706874479    -0.0839507631
   62      C       4.3035778214    -1.6717415223    -0.3047094899
   63      C       3.4359928472    -2.6082581585    -0.9079000921
   64      C       3.5790195998    -0.6940274672     0.4422059069
   65      N       2.0926429197    -2.5881841840    -0.8736362937
   66      N       4.1647154954     0.2606576225     1.2367533866
   67      C       2.1870285394    -0.6594980107     0.5385106532
   68      C       1.4100696486    -1.5955715377    -0.2488204297
   69      S       3.0240415242     1.1289062594     2.0263185809
   70      N       1.7247006794     0.3740212881     1.4074179031
   71      C      -0.0237012214    -1.6557752221    -0.2458863402
   72      S      -1.1488859416    -0.9033807456     0.8569581172
   73      C      -0.6852107836    -2.5604475739    -0.9901544605
   74      C      -2.4865354698    -1.9936565891     0.3540591961
   75      S      -0.0725879501    -3.5705488917    -2.2883588324
   76      C      -2.0413071737    -2.6542083082    -0.7257598585
   77      C      -3.8012740641    -2.1811902926     0.9116025026
   78      C      -1.7024790306    -4.1278678994    -2.5429557474
   79      C      -2.6216501122    -3.5374908754    -1.6792633876
   80      N      -4.1562009887    -1.2179504523     1.8082015704
   81      S      -4.8408307550    -3.5091905843     0.6257859325
   82      C      -5.3474761186    -1.6713583022     2.3486068687
   83      C      -5.8198885705    -2.8447496196     1.9458609298
   84      C       9.9672361259    -2.2907230033    -0.2469986932
   85      H       8.2122151368    -4.1062578006    -0.8277083690
   86      H       5.7505212043    -3.9953920846    -0.5245569621
   87      H       6.2933158726     0.2688958439     0.1158557259
   88      H       3.8357707267    -3.5020549039    -1.3843610297
   89      H      -1.8970335713    -4.8149045083    -3.3564170118
   90      H      -3.6635100477    -3.8382290922    -1.6615320630
   91      H      -5.8023424188    -1.0309904646     3.0931145460
   92      H      -6.7528211249    -3.3523319775     2.1558585461
   93      H      10.1960960720    -3.3145621660     0.0719534881
   94      C      10.8037874013    -1.3800808801     0.7150922002
   95      H      10.3508311432    -2.2339932842    -1.2733137529
   96      H      10.3216368997    -1.4351200377     1.6990757290
   97      H      10.7656199713    -0.3378675303     0.3748620124
   98      C      12.3070472307    -1.7896467305     0.8523681987
   99      H      12.4335814176    -2.8561115465     1.0704665616
  100      C      13.1227777308    -0.9573049778     1.8689251120
  101      H      12.7110093307    -1.5624537405    -0.1425071538
  102      H      12.7934471360    -1.2332572604     2.8784520790
  103      H      12.9102275240     0.1147932597     1.7707580165
  104      C      14.6237838936    -1.2480056023     1.8170054999
  105      H      14.9190423405    -2.2000892121     2.2737124623
  106      C      15.3000160355    -0.1421674610     2.5986710904
  107      H      15.0205584278    -1.1904812237     0.7962283867
  108      H      16.3959201328    -0.0986184773     2.5697626895
  109      H      15.1154260452    -0.3745480709     3.6545625563
  110      H      14.8880241126     0.8505834352     2.3761979159
 ----------------------------------------------------------------

   10   -5663.4796016933      3.78E-06 Convergence criterion met
 Total energy in the final basis set = -5663.4796016933

                    Orbital Energies (a.u.)
 --------------------------------------------------------------

 Alpha MOs
 -- Occupied --
-88.990 -88.982 -88.934 -88.930 -88.922 -88.918 -88.909 -88.907
-14.383 -14.382 -14.381 -14.369 -14.349 -14.343 -14.342 -14.341
-14.328 -14.326 -10.267 -10.266 -10.264 -10.260 -10.258 -10.255
-10.252 -10.252 -10.241 -10.236 -10.235 -10.234 -10.234 -10.233
-10.231 -10.229 -10.229 -10.225 -10.224 -10.224 -10.223 -10.223
-10.221 -10.221 -10.221 -10.220 -10.217 -10.215 -10.215 -10.211
-10.206 -10.203 -10.202 -10.202 -10.201 -10.201 -10.199 -10.195
-10.187 -10.185 -10.179 -10.178 -10.177 -10.177 -10.176 -10.176
-10.171 -10.171 -10.167 -10.163  -8.044  -8.037  -7.995  -7.991
 -7.981  -7.976  -7.968  -7.967  -6.009  -6.003  -6.002  -6.002
 -5.997  -5.994  -5.959  -5.956  -5.955  -5.952  -5.952  -5.948
 -5.945  -5.941  -5.941  -5.938  -5.937  -5.933  -5.933  -5.931
 -5.929  -5.927  -5.925  -5.923  -1.017  -1.008  -0.972  -0.963
 -0.956  -0.951  -0.947  -0.933  -0.917  -0.913  -0.884  -0.878
 -0.846  -0.844  -0.834  -0.831  -0.811  -0.811  -0.806  -0.803
 -0.801  -0.801  -0.796  -0.791  -0.790  -0.775  -0.768  -0.762
 -0.752  -0.747  -0.741  -0.740  -0.727  -0.721  -0.711  -0.703
 -0.696  -0.688  -0.674  -0.666  -0.654  -0.654  -0.644  -0.639
 -0.633  -0.630  -0.625  -0.621  -0.612  -0.607  -0.595  -0.594
 -0.592  -0.589  -0.578  -0.576  -0.575  -0.571  -0.569  -0.546
 -0.544  -0.543  -0.541  -0.538  -0.522  -0.520  -0.516  -0.515
 -0.510  -0.504  -0.496  -0.494  -0.485  -0.483  -0.477  -0.473
 -0.471  -0.469  -0.468  -0.462  -0.460  -0.453  -0.450  -0.448
 -0.447  -0.440  -0.439  -0.439  -0.434  -0.432  -0.431  -0.428
 -0.427  -0.426  -0.422  -0.421  -0.419  -0.414  -0.413  -0.412
 -0.411  -0.410  -0.407  -0.403  -0.400  -0.398  -0.396  -0.393
 -0.393  -0.391  -0.388  -0.387  -0.386  -0.383  -0.381  -0.380
 -0.378  -0.376  -0.373  -0.369  -0.368  -0.365  -0.354  -0.353
 -0.350  -0.350  -0.346  -0.343  -0.343  -0.339  -0.338  -0.336
 -0.335  -0.332  -0.330  -0.329  -0.327  -0.325  -0.322  -0.312
 -0.311  -0.305  -0.305  -0.304  -0.302  -0.302  -0.294  -0.294
 -0.292  -0.290  -0.289  -0.288  -0.287  -0.283  -0.282  -0.277
 -0.273  -0.269  -0.266  -0.262  -0.254  -0.250  -0.250  -0.246
 -0.243  -0.239  -0.231  -0.229  -0.194  -0.189

          Ground-State Mulliken Net Atomic Charges

     Atom                 Charge (a.u.)
  ----------------------------------------
      1 C                     0.260726
      2 C                    -0.136693
      3 N                    -0.494127
      4 C                    -0.076024
      5 C                     0.094711
      6 C                     0.052769
      7 C                     0.026110
      8 C                     0.071776
      9 C                     0.220069
     10 N                    -0.549169
     11 N                    -0.558454
     12 C                     0.208142
     13 C                     0.344287
     14 S                     0.602877
     15 N                    -0.578736
     16 C                    -0.220541
     17 S                     0.374615
     18 C                    -0.105526
     19 C                    -0.195398
     20 S                     0.291260
     21 C                     0.118543
     22 C                     0.001392
     23 C                    -0.318407
     24 C                    -0.072747
     25 N                    -0.411776
     26 S                     0.295169
     27 C                     0.132964
     28 C                    -0.311657
     29 C                    -0.208759
     30 H                     0.094102
     31 H                     0.100582
     32 H                     0.122682
     33 H                     0.112083
     34 H                     0.132801
     35 H                     0.108894
     36 H                     0.122876
     37 H                     0.127943
     38 H                     0.124115
     39 C                    -0.182488
     40 H                     0.094046
     41 H                     0.081131
     42 H                     0.088463
     43 C                    -0.172030
     44 H                     0.086490
     45 C                    -0.183057
     46 H                     0.108995
     47 H                     0.079670
     48 H                     0.106847
     49 C                    -0.178323
     50 H                     0.089938
     51 C                    -0.320826
     52 H                     0.088533
     53 H                     0.123882
     54 H                     0.094356
     55 H                     0.096183
     56 C                     0.295241
     57 C                    -0.113615
     58 N                    -0.486087
     59 C                    -0.089414
     60 C                     0.070644
     61 C                     0.050832
     62 C                     0.040069
     63 C                     0.042632
     64 C                     0.228132
     65 N                    -0.534377
     66 N                    -0.580244
     67 C                     0.187763
     68 C                     0.309314
     69 S                     0.636342
     70 N                    -0.558753
     71 C                    -0.193740
     72 S                     0.354781
     73 C                    -0.117689
     74 C                    -0.220829
     75 S                     0.294393
     76 C                     0.184515
     77 C                     0.029826
     78 C                    -0.299880
     79 C                    -0.110039
     80 N                    -0.438181
     81 S                     0.282235
     82 C                     0.137927
     83 C                    -0.310499
     84 C                    -0.242075
     85 H                     0.098744
     86 H                     0.092589
     87 H                     0.126930
     88 H                     0.103988
     89 H                     0.127200
     90 H                     0.099869
     91 H                     0.117551
     92 H                     0.137041
     93 H                     0.100423
     94 C                    -0.176991
     95 H                     0.111669
     96 H                     0.093172
     97 H                     0.109650
     98 C                    -0.179360
     99 H                     0.086087
    100 C                    -0.169997
    101 H                     0.089728
    102 H                     0.092706
    103 H                     0.092786
    104 C                    -0.172299
    105 H                     0.096327
    106 C                    -0.317664
    107 H                     0.093115
    108 H                     0.092314
    109 H                     0.098483
    110 H                     0.101427
  ----------------------------------------
  Sum of atomic charges =     0.000000

                    Cartesian Multipole Moments
 -----------------------------------------------------------------
    Charge (ESU x 10^10)
                 0.0000
    Dipole Moment (Debye)
         X       1.1048      Y      -3.1454      Z      -1.6913
       Tot       3.7383
    Quadrupole Moments (Debye-Ang)
        XX    -415.8492     XY      11.3606     YY    -426.3529
        XZ       8.8831     YZ      17.0935     ZZ    -441.1876

 Total job time:  115.35s(wall), 1239.71s(cpu)
        *  Thank you very much for using Q-Chem.  Have a nice day.  *
