 Q-Chem 4.4, Q-Chem, Inc., Pleasanton, CA (2016)
 Q-Chem 4.4.2 for Intel X86 Linux

User input:
--------------------------------------------------------------
$comment
SP
$end

$rem
MEM_STATIC 5000
MEM_TOTAL 20000
JOBTYPE SP
EXCHANGE B3LYP
BASIS 6-31g(d,p)
$end

$molecule
0 1
C          -3.465000    -20.114000      2.214000
C          -3.406000    -20.151000      0.821000
N          -2.685000    -19.212000      2.901000
C          -2.689000    -19.201000      0.109000
C          -2.056000    -18.242000      2.193000
C          -2.094000    -18.120000      0.799000
C          -1.520000    -16.973000      0.107000
C          -0.453000    -16.974000     -0.838000
C          -2.066000    -15.697000      0.306000
N           0.128000    -15.893000     -1.487000
N          -3.177000    -15.417000      0.973000
C          -1.538000    -14.561000     -0.373000
C          -0.364000    -14.663000     -1.208000
S          -3.492000    -13.825000      0.781000
N          -2.232000    -13.421000     -0.156000
C           0.249000    -13.452000     -1.835000
S          -0.130000    -11.806000     -1.402000
C           1.424000    -13.560000     -2.607000
C           1.323000    -11.282000     -2.326000
S           2.327000    -14.915000     -3.354000
C           1.920000    -12.312000     -2.900000
C           1.734000     -9.924000     -2.159000
C           3.434000    -13.676000     -4.011000
C           3.086000    -12.385000     -3.639000
N           2.668000     -9.408000     -2.903000
S           1.231000     -8.980000     -0.819000
C           3.091000     -8.216000     -2.377000
C           2.521000     -7.853000     -1.235000
C          -4.314000    -21.127000      2.959000
H          -3.784000    -21.016000      0.284000
H          -2.605000    -19.253000     -0.972000
H          -1.529000    -17.493000      2.782000
H           0.075000    -17.889000     -1.103000
H           4.284000    -14.014000     -4.588000
H           3.673000    -11.513000     -3.905000
H           3.896000     -7.753000     -2.933000
H           2.840000     -6.939000     -0.752000
H          -3.646000    -21.975000      3.154000
C          -5.607000    -21.662000      2.448000
H          -4.457000    -20.745000      3.978000
H          -5.544000    -21.847000      1.368000
H          -6.328000    -20.856000      2.632000
C          -6.012000    -23.092000      2.990000
H          -5.501000    -23.964000      2.563000
C          -7.534000    -23.296000      2.818000
H          -5.844000    -23.172000      4.072000
H          -7.863000    -23.343000      1.773000
H          -8.055000    -22.377000      3.113000
C          -8.242000    -24.457000      3.618000
H          -7.716000    -25.418000      3.574000
C          -9.631000    -24.735000      3.059000
H          -8.237000    -24.107000      4.658000
H         -10.207000    -23.816000      2.895000
H         -10.103000    -25.440000      3.754000
H          -9.652000    -25.155000      2.046000
C         -11.120000    -19.321000     10.700000
C          -9.783000    -19.406000     10.367000
N         -12.099000    -19.186000      9.840000
C          -9.480000    -19.529000      9.023000
C         -11.810000    -19.317000      8.523000
C         -10.501000    -19.442000      8.049000
C         -10.193000    -19.206000      6.627000
C          -8.927000    -18.843000      6.118000
C         -11.039000    -19.726000      5.601000
N          -8.540000    -18.894000      4.832000
N         -12.277000    -20.276000      5.826000
C         -10.664000    -19.835000      4.261000
C          -9.386000    -19.291000      3.848000
S         -12.903000    -20.869000      4.435000
N         -11.669000    -20.457000      3.461000
C          -8.890000    -19.331000      2.502000
S          -9.482000    -20.255000      1.144000
C          -7.686000    -18.820000      2.187000
C          -7.951000    -20.032000      0.229000
S          -6.655000    -17.772000      3.146000
C          -7.240000    -19.121000      0.911000
C          -7.495000    -20.639000     -0.995000
C          -5.582000    -17.676000      1.778000
C          -6.035000    -18.400000      0.678000
N          -8.474000    -21.302000     -1.673000
S          -5.883000    -20.676000     -1.566000
C          -7.806000    -21.950000     -2.698000
C          -6.486000    -21.829000     -2.770000
C         -11.374000    -19.308000     12.200000
H          -9.026000    -19.179000     11.112000
H          -8.438000    -19.490000      8.720000
H         -12.694000    -19.147000      7.909000
H          -8.118000    -18.573000      6.795000
H          -4.708000    -17.041000      1.845000
H          -5.440000    -18.502000     -0.223000
H          -8.422000    -22.539000     -3.365000
H          -5.775000    -22.163000     -3.515000
H         -10.566000    -19.845000     12.711000
C         -12.685000    -20.027000     12.668000
H         -11.320000    -18.289000     12.603000
H         -12.701000    -21.006000     12.173000
H         -13.564000    -19.462000     12.334000
C         -12.798000    -20.228000     14.215000
H         -11.897000    -20.678000     14.647000
C         -14.042000    -21.018000     14.684000
H         -12.915000    -19.201000     14.584000
H         -13.906000    -22.069000     14.400000
H         -14.948000    -20.685000     14.162000
C         -14.223000    -21.008000     16.203000
H         -13.532000    -21.662000     16.748000
C         -15.626000    -21.510000     16.469000
H         -14.175000    -19.994000     16.618000
H         -15.997000    -21.454000     17.500000
H         -15.585000    -22.594000     16.307000
H         -16.370000    -21.077000     15.788000
$end

--------------------------------------------------------------

             Standard Nuclear Orientation (Angstroms)
    I     Atom           X                Y                Z
 ----------------------------------------------------------------
    1      C      -0.6861384449    -1.6542157162    -2.6850097099
    2      C      -1.5474779502    -2.6122025838    -2.1505432299
    3      N      -1.1848910480    -0.4256515323    -3.0535865499
    4      C      -2.8648418754    -2.3016369743    -1.8478316663
    5      C      -2.4488412018    -0.1105388773    -2.6781680856
    6      C      -3.3128636827    -0.9679903512    -1.9869328706
    7      C      -4.6053530484    -0.5218108078    -1.4826075247
    8      C      -5.8946046426    -1.0068124385    -1.8488297867
    9      C      -4.6596905433     0.4580229812    -0.4811754587
   10      N      -7.1378865862    -0.5784139707    -1.4038042127
   11      N      -3.6265375086     0.9512101909     0.1873835760
   12      C      -5.9085684649     0.8984024937     0.0448386304
   13      C      -7.1610866273     0.4298275442    -0.5006343474
   14      S      -4.2066537614     1.9292769204     1.3610119695
   15      N      -5.7940758285     1.7706499726     1.0716788185
   16      C      -8.4681398948     0.9717965600    -0.0176226065
   17      S      -8.6523351721     2.4013789795     0.9636073389
   18      C      -9.6809173866     0.5415178245    -0.5940807275
   19      C     -10.4135833838     2.3661241789     0.5943881143
   20      S     -10.1637712458    -0.8139290775    -1.6613477262
   21      C     -10.7238507470     1.3187860158    -0.1496561958
   22      C     -11.1693969879     3.5211414520     0.9627016961
   23      C     -11.8349261850    -0.2010005462    -1.5071440142
   24      C     -11.9256090180     0.9348200791    -0.7147696514
   25      N     -12.4679991132     3.5270047722     0.8868983859
   26      S     -10.4257374432     5.0364143586     1.2638054990
   27      C     -12.9454982984     4.8057079199     1.0025780653
   28      C     -12.0281533753     5.7570827101     1.1217304908
   29      C       0.7671679055    -2.0070911225    -2.9406942801
   30      H      -1.2462494825    -3.6550769523    -2.1165953015
   31      H      -3.5491956624    -3.0564333060    -1.4733141209
   32      H      -2.7702171490     0.9048054396    -2.9049817065
   33      H      -6.0214536934    -1.7723426985    -2.6130985478
   34      H     -12.6127509326    -0.7129467393    -2.0572101533
   35      H     -12.8537868498     1.4710951846    -0.5516625582
   36      H     -14.0212908179     4.8814904563     0.9106136042
   37      H     -12.3427886348     6.7905425086     1.1801385248
   38      H       0.7935517570    -2.3937076054    -3.9669420998
   39      C       1.5624470548    -2.9248275392    -2.0778582909
   40      H       1.3136706011    -1.0636270065    -3.0669648843
   41      H       0.9495240883    -3.7782726593    -1.7607607284
   42      H       1.8175714338    -2.3205742647    -1.1985844250
   43      C       2.7709605348    -3.6528560374    -2.7935109124
   44      H       2.5399423479    -4.4989685741    -3.4527211766
   45      C       3.7839523151    -4.1351072404    -1.7309830632
   46      H       3.3416570987    -2.9567912426    -3.4221182887
   47      H       3.3984664279    -4.9212908942    -1.0708384629
   48      H       3.9223932251    -3.3454386783    -0.9824614025
   49      C       5.2379495838    -4.5378094978    -2.1924024323
   50      H       5.2648574832    -5.1878584338    -3.0749245827
   51      C       5.9598989444    -5.3156072074    -1.1002001416
   52      H       5.7105872467    -3.5821039963    -2.4519513372
   53      H       5.8596869662    -4.8434585631    -0.1151792194
   54      H       6.9970141385    -5.4250566640    -1.4396804660
   55      H       5.5441134487    -6.3060852545    -0.8786473044
   56      C       9.2542538158     3.5453592954    -0.3627066720
   57      C       8.1859402518     3.4511255030    -1.2319069488
   58      N       9.3421369167     2.9224431760     0.7864312957
   59      C       7.2256179510     2.4989472531    -0.9413701025
   60      C       8.4109173127     1.9806751986     1.0711664813
   61      C       7.2938335048     1.7583434237     0.2609354353
   62      C       6.1304066143     1.0142276981     0.7760797428
   63      C       4.8136069957     1.1154855038     0.2766884921
   64      C       6.3074288073    -0.1758728235     1.5449203581
   65      N       3.8006689838     0.2666281912     0.5207455490
   66      N       7.5142222646    -0.6000975638     2.0443719784
   67      C       5.2948478068    -1.1048784411     1.7893263319
   68      C       3.9505653803    -0.8060734807     1.3383170709
   69      S       7.3541497153    -2.0576899907     2.7711505526
   70      N       5.7586717647    -2.2392154118     2.5208015350
   71      C       2.8231548653    -1.6717905990     1.5353231663
   72      S       2.8008408207    -3.3419263407     2.0438039308
   73      C       1.6018745809    -1.3413984528     1.0778545918
   74      C       1.1203922901    -3.5778733777     1.4510672846
   75      S       1.0346512543     0.2124033542     0.4905696163
   76      C       0.6614758382    -2.3560708419     1.1393618890
   77      C       0.3347611684    -4.7776148565     1.3170332421
   78      C      -0.5541769661    -0.4868365013     0.3539771174
   79      C      -0.6006073671    -1.8181550199     0.7599576832
   80      N       0.8717752592    -5.8556116935     1.9551810979
   81      S      -1.0830400274    -4.9581561483     0.3772467711
   82      C       0.0797968837    -6.9203687700     1.5604462240
   83      C      -0.9078632604    -6.6918129827     0.7034078982
   84      C      10.3220192900     4.5301502084    -0.8151983845
   85      H       8.0249855871     4.2267285751    -1.9749658096
   86      H       6.3220844209     2.4723901449    -1.5430476572
   87      H       8.5674836627     1.5626842568     2.0652100168
   88      H       4.5583036761     1.8838210636    -0.4514534463
   89      H      -1.3754529304     0.1436533232     0.0384167086
   90      H      -1.5011446872    -2.4143749336     0.6610418123
   91      H       0.3463762716    -7.8852463114     1.9718010101
   92      H      -1.6943356947    -7.3341445373     0.3279438067
   93      H      10.3112094881     4.6019968633    -1.9093077056
   94      C      11.7961847880     4.1369868133    -0.4588774204
   95      H      10.0938515353     5.5476334737    -0.4740924181
   96      H      11.9263271667     3.0918642766    -0.7662921963
   97      H      11.9494750640     4.1946199852     0.6258356793
   98      C      12.8879328760     5.0187621955    -1.1494838840
   99      H      12.7296972339     5.1136687626    -2.2297057247
  100      C      14.3476077201     4.5844793832    -0.8805140188
  101      H      12.7515929219     5.9945538105    -0.6659333272
  102      H      14.5323982000     3.6513742717    -1.4272500880
  103      H      14.5049490619     4.3434219213     0.1784212966
  104      C      15.3786907616     5.5903948119    -1.3955129626
  105      H      15.5172687143     5.5836570036    -2.4831584715
  106      C      16.7012979175     5.2048969043    -0.7683999948
  107      H      15.1639221988     6.6114908114    -1.0579297518
  108      H      17.5480311847     5.8876586108    -0.9119869940
  109      H      17.0377191697     4.3165536059    -1.3167137054
  110      H      16.6109262922     4.9522539779     0.2959263278
 ----------------------------------------------------------------

   10   -5663.5024330325      3.39E-06 Convergence criterion met
 Total energy in the final basis set = -5663.5024330325

                    Orbital Energies (a.u.)
 --------------------------------------------------------------

 Alpha MOs
 -- Occupied --
-88.992 -88.991 -88.934 -88.929 -88.928 -88.921 -88.917 -88.905
-14.392 -14.383 -14.382 -14.370 -14.358 -14.350 -14.344 -14.338
-14.333 -14.324 -10.270 -10.270 -10.266 -10.265 -10.260 -10.258
-10.257 -10.253 -10.248 -10.247 -10.240 -10.238 -10.236 -10.236
-10.235 -10.231 -10.229 -10.229 -10.228 -10.227 -10.226 -10.225
-10.224 -10.224 -10.222 -10.221 -10.218 -10.214 -10.214 -10.214
-10.212 -10.209 -10.202 -10.199 -10.196 -10.194 -10.194 -10.193
-10.183 -10.181 -10.180 -10.180 -10.175 -10.175 -10.175 -10.174
-10.174 -10.168 -10.166 -10.165  -8.048  -8.046  -7.995  -7.991
 -7.987  -7.979  -7.975  -7.965  -6.013  -6.011  -6.007  -6.005
 -6.005  -6.004  -5.959  -5.955  -5.955  -5.952  -5.952  -5.951
 -5.948  -5.948  -5.944  -5.944  -5.940  -5.940  -5.936  -5.936
 -5.931  -5.929  -5.926  -5.921  -1.044  -1.018  -0.982  -0.966
 -0.957  -0.952  -0.945  -0.933  -0.921  -0.918  -0.912  -0.880
 -0.848  -0.842  -0.838  -0.831  -0.814  -0.809  -0.808  -0.808
 -0.804  -0.801  -0.801  -0.800  -0.788  -0.782  -0.770  -0.768
 -0.758  -0.752  -0.745  -0.740  -0.729  -0.721  -0.712  -0.709
 -0.699  -0.695  -0.678  -0.675  -0.654  -0.653  -0.643  -0.639
 -0.635  -0.633  -0.629  -0.625  -0.613  -0.606  -0.599  -0.597
 -0.596  -0.590  -0.588  -0.578  -0.576  -0.574  -0.570  -0.567
 -0.562  -0.545  -0.541  -0.540  -0.522  -0.522  -0.515  -0.515
 -0.510  -0.509  -0.499  -0.495  -0.492  -0.482  -0.477  -0.475
 -0.473  -0.472  -0.472  -0.467  -0.465  -0.459  -0.450  -0.448
 -0.446  -0.445  -0.445  -0.440  -0.439  -0.436  -0.433  -0.430
 -0.428  -0.426  -0.425  -0.420  -0.418  -0.418  -0.415  -0.413
 -0.412  -0.411  -0.409  -0.403  -0.400  -0.400  -0.398  -0.396
 -0.394  -0.393  -0.392  -0.388  -0.387  -0.385  -0.382  -0.381
 -0.380  -0.377  -0.375  -0.367  -0.366  -0.363  -0.360  -0.356
 -0.356  -0.353  -0.351  -0.344  -0.342  -0.341  -0.339  -0.338
 -0.336  -0.334  -0.332  -0.330  -0.328  -0.323  -0.320  -0.315
 -0.313  -0.309  -0.309  -0.307  -0.303  -0.302  -0.297  -0.297
 -0.295  -0.294  -0.291  -0.290  -0.290  -0.287  -0.287  -0.283
 -0.280  -0.272  -0.268  -0.266  -0.263  -0.255  -0.252  -0.250
 -0.248  -0.243  -0.238  -0.227  -0.200  -0.193

          Ground-State Mulliken Net Atomic Charges

     Atom                 Charge (a.u.)
  ----------------------------------------
      1 C                     0.286792
      2 C                    -0.105017
      3 N                    -0.490590
      4 C                    -0.080997
      5 C                     0.081929
      6 C                     0.030836
      7 C                     0.008932
      8 C                     0.044156
      9 C                     0.280557
     10 N                    -0.529455
     11 N                    -0.575205
     12 C                     0.174854
     13 C                     0.331615
     14 S                     0.605416
     15 N                    -0.558938
     16 C                    -0.233571
     17 S                     0.321113
     18 C                    -0.121120
     19 C                    -0.242096
     20 S                     0.284618
     21 C                     0.209412
     22 C                     0.063797
     23 C                    -0.318746
     24 C                    -0.052110
     25 N                    -0.434617
     26 S                     0.266432
     27 C                     0.126283
     28 C                    -0.306160
     29 C                    -0.243428
     30 H                     0.098973
     31 H                     0.096899
     32 H                     0.103948
     33 H                     0.114994
     34 H                     0.132754
     35 H                     0.126578
     36 H                     0.112216
     37 H                     0.130459
     38 H                     0.116689
     39 C                    -0.186615
     40 H                     0.124269
     41 H                     0.100826
     42 H                     0.126885
     43 C                    -0.193187
     44 H                     0.096519
     45 C                    -0.190682
     46 H                     0.092288
     47 H                     0.095592
     48 H                     0.102255
     49 C                    -0.176269
     50 H                     0.088928
     51 C                    -0.324139
     52 H                     0.094539
     53 H                     0.109909
     54 H                     0.096173
     55 H                     0.105204
     56 C                     0.295807
     57 C                    -0.113407
     58 N                    -0.484467
     59 C                    -0.089292
     60 C                     0.077147
     61 C                     0.048093
     62 C                     0.048143
     63 C                     0.046262
     64 C                     0.227597
     65 N                    -0.526986
     66 N                    -0.569402
     67 C                     0.179499
     68 C                     0.302464
     69 S                     0.629815
     70 N                    -0.563247
     71 C                    -0.201494
     72 S                     0.337010
     73 C                    -0.145797
     74 C                    -0.211886
     75 S                     0.292687
     76 C                     0.181215
     77 C                     0.028327
     78 C                    -0.305929
     79 C                    -0.108618
     80 N                    -0.431322
     81 S                     0.283272
     82 C                     0.136546
     83 C                    -0.314745
     84 C                    -0.242483
     85 H                     0.099042
     86 H                     0.092929
     87 H                     0.126127
     88 H                     0.107222
     89 H                     0.166475
     90 H                     0.097430
     91 H                     0.111150
     92 H                     0.131571
     93 H                     0.100032
     94 C                    -0.176648
     95 H                     0.112415
     96 H                     0.092763
     97 H                     0.111228
     98 C                    -0.180042
     99 H                     0.085671
    100 C                    -0.169699
    101 H                     0.089967
    102 H                     0.092369
    103 H                     0.093583
    104 C                    -0.172501
    105 H                     0.095901
    106 C                    -0.317643
    107 H                     0.093139
    108 H                     0.091874
    109 H                     0.098239
    110 H                     0.101899
  ----------------------------------------
  Sum of atomic charges =     0.000000

                    Cartesian Multipole Moments
 -----------------------------------------------------------------
    Charge (ESU x 10^10)
                 0.0000
    Dipole Moment (Debye)
         X      -3.9008      Y       0.6651      Z      -1.7817
       Tot       4.3397
    Quadrupole Moments (Debye-Ang)
        XX    -421.8270     XY     -13.1436     YY    -406.7326
        XZ      -7.5249     YZ       6.0691     ZZ    -452.5693

 Total job time:  103.90s(wall), 1135.04s(cpu)
        *  Thank you very much for using Q-Chem.  Have a nice day.  *
