 Q-Chem 4.4, Q-Chem, Inc., Pleasanton, CA (2016)
 Q-Chem 4.4.2 for Intel X86 Linux

User input:
--------------------------------------------------------------
$comment
SP
$end

$rem
MEM_STATIC 5000
MEM_TOTAL 20000
JOBTYPE SP
EXCHANGE B3LYP
BASIS 6-31g(d,p)
$end

$molecule
0 1
C         -12.874000    -26.371000      4.645000
C         -12.397000    -27.261000      3.624000
N         -13.254000    -25.105000      4.348000
C         -12.630000    -26.900000      2.257000
C         -13.379000    -24.749000      3.019000
C         -13.006000    -25.555000      1.936000
C         -13.107000    -25.142000      0.462000
C         -13.505000    -26.078000     -0.544000
C         -12.868000    -23.843000     -0.014000
N         -13.660000    -25.792000     -1.843000
N         -12.414000    -22.902000      0.803000
C         -12.913000    -23.533000     -1.388000
C         -13.396000    -24.543000     -2.294000
S         -12.457000    -21.612000     -0.186000
N         -12.715000    -22.232000     -1.666000
C         -13.640000    -24.430000     -3.745000
S         -14.860000    -25.286000     -4.740000
C         -12.854000    -23.665000     -4.591000
C         -14.271000    -24.643000     -6.203000
S         -11.360000    -22.846000     -4.301000
C         -13.186000    -23.862000     -5.937000
C         -14.578000    -25.102000     -7.544000
C         -11.319000    -22.536000     -6.055000
C         -12.271000    -23.154000     -6.791000
N         -15.478000    -26.065000     -7.658000
S         -13.817000    -24.678000     -9.064000
C         -15.504000    -26.537000     -8.926000
C         -14.766000    -25.854000     -9.805000
C         -12.689000    -26.680000      6.100000
H         -11.947000    -28.211000      3.897000
H         -12.348000    -27.642000      1.516000
H         -13.672000    -23.721000      2.810000
H         -13.758000    -27.105000     -0.285000
H         -10.559000    -21.869000     -6.440000
H         -12.393000    -23.074000     -7.865000
H         -16.198000    -27.314000     -9.219000
H         -14.728000    -26.102000    -10.858000
H         -13.478000    -27.374000      6.416000
C         -12.777000    -25.503000      7.066000
H         -11.717000    -27.142000      6.314000
H         -13.765000    -25.027000      7.063000
H         -12.143000    -24.728000      6.618000
C         -12.338000    -25.951000      8.447000
H         -13.042000    -26.696000      8.839000
C         -12.581000    -24.707000      9.290000
H         -11.362000    -26.419000      8.625000
H         -13.640000    -24.500000      9.489000
H         -12.145000    -23.819000      8.816000
C         -12.148000    -24.986000     10.758000
H         -12.785000    -25.762000     11.201000
C         -12.414000    -23.886000     11.813000
H         -11.144000    -25.421000     10.834000
H         -12.152000    -24.315000     12.788000
H         -13.482000    -23.688000     11.659000
H         -11.797000    -23.006000     11.595000
C         -11.120000    -19.321000     10.700000
C          -9.783000    -19.406000     10.367000
N         -12.099000    -19.186000      9.840000
C          -9.480000    -19.529000      9.023000
C         -11.810000    -19.317000      8.523000
C         -10.501000    -19.442000      8.049000
C         -10.193000    -19.206000      6.627000
C          -8.927000    -18.843000      6.118000
C         -11.039000    -19.726000      5.601000
N          -8.540000    -18.894000      4.832000
N         -12.277000    -20.276000      5.826000
C         -10.664000    -19.835000      4.261000
C          -9.386000    -19.291000      3.848000
S         -12.903000    -20.869000      4.435000
N         -11.669000    -20.457000      3.461000
C          -8.890000    -19.331000      2.502000
S          -9.482000    -20.255000      1.144000
C          -7.686000    -18.820000      2.187000
C          -7.951000    -20.032000      0.229000
S          -6.655000    -17.772000      3.146000
C          -7.240000    -19.121000      0.911000
C          -7.495000    -20.639000     -0.995000
C          -5.582000    -17.676000      1.778000
C          -6.035000    -18.400000      0.678000
N          -8.474000    -21.302000     -1.673000
S          -5.883000    -20.676000     -1.566000
C          -7.806000    -21.950000     -2.698000
C          -6.486000    -21.829000     -2.770000
C         -11.374000    -19.308000     12.200000
H          -9.026000    -19.179000     11.112000
H          -8.438000    -19.490000      8.720000
H         -12.694000    -19.147000      7.909000
H          -8.118000    -18.573000      6.795000
H          -4.708000    -17.041000      1.845000
H          -5.440000    -18.502000     -0.223000
H          -8.422000    -22.539000     -3.365000
H          -5.775000    -22.163000     -3.515000
H         -10.566000    -19.845000     12.711000
C         -12.685000    -20.027000     12.668000
H         -11.320000    -18.289000     12.603000
H         -12.701000    -21.006000     12.173000
H         -13.564000    -19.462000     12.334000
C         -12.798000    -20.228000     14.215000
H         -11.897000    -20.678000     14.647000
C         -14.042000    -21.018000     14.684000
H         -12.915000    -19.201000     14.584000
H         -13.906000    -22.069000     14.400000
H         -14.948000    -20.685000     14.162000
C         -14.223000    -21.008000     16.203000
H         -13.532000    -21.662000     16.748000
C         -15.626000    -21.510000     16.469000
H         -14.175000    -19.994000     16.618000
H         -15.997000    -21.454000     17.500000
H         -15.585000    -22.594000     16.307000
H         -16.370000    -21.077000     15.788000
$end

--------------------------------------------------------------

             Standard Nuclear Orientation (Angstroms)
    I     Atom           X                Y                Z
 ----------------------------------------------------------------
    1      C       1.4951083824    -4.0886049571    -2.2999395459
    2      C       0.3477071897    -4.1787332273    -3.1586696536
    3      N       1.4185281324    -3.4814358598    -1.0912848588
    4      C      -0.9389249591    -3.9060339018    -2.5898886837
    5      C       0.1721957065    -3.1386235689    -0.6037018226
    6      C      -1.0246680203    -3.2398685747    -1.3240633070
    7      C      -2.4023545629    -2.8200242546    -0.7957106433
    8      C      -3.5745590126    -3.5837345204    -1.0944067398
    9      C      -2.6268097891    -1.7109785122     0.0353942796
   10      N      -4.8051321408    -3.3138713826    -0.6404401517
   11      N      -1.6374654039    -0.8748071435     0.3201768803
   12      C      -3.9228330652    -1.3334498375     0.4401124130
   13      C      -5.0131633968    -2.2234629860     0.1346924339
   14      S      -2.3778258532     0.0980918637     1.3922794532
   15      N      -3.9537814063    -0.2825683424     1.2790279531
   16      C      -6.4275882324    -2.1111122663     0.5402608007
   17      S      -7.6038547790    -3.4252697851     0.8573538897
   18      C      -7.0927313307    -0.9012593082     0.6524101584
   19      C      -8.9045186540    -2.3489258253     1.0820674062
   20      S      -6.6062997499     0.6938923633     0.1987886616
   21      C      -8.4631440016    -1.0749732677     0.8816296420
   22      C     -10.3164947845    -2.6791733861     1.1037689134
   23      C      -8.2727448779     1.1909555519     0.5863268171
   24      C      -9.1418516673     0.1926638305     0.8655955543
   25      N     -10.6347760743    -3.9612060185     1.0299153425
   26      S     -11.7066391395    -1.6139109034     1.0589189966
   27      C     -11.9673238783    -4.1051736371     0.8431703960
   28      C     -12.6814406550    -2.9800494069     0.9320899995
   29      C       2.8759217827    -4.3749989690    -2.8079393722
   30      H       0.4603302625    -4.5210875811    -4.1831883406
   31      H      -1.7913230948    -4.0822919224    -3.2391340368
   32      H       0.1421824253    -2.6389889067     0.3636545788
   33      H      -3.5147085178    -4.4899945833    -1.6951809209
   34      H      -8.5034306484     2.2480378516     0.5949920881
   35      H     -10.1873460420     0.3163214370     1.1232975311
   36      H     -12.4205577585    -5.0861114715     0.7835548373
   37      H     -13.7598872069    -2.9602996489     0.8408760652
   38      H       3.0328727198    -5.4609908463    -2.8089619556
   39      C       4.0350388846    -3.8011015083    -1.9996583266
   40      H       3.0374173283    -4.0020264488    -3.8271717735
   41      H       4.0828894490    -4.2078910283    -0.9823276970
   42      H       3.7574617554    -2.7551503608    -1.8201530780
   43      C       5.3270537797    -3.9828368583    -2.7731282829
   44      H       5.5525157917    -5.0517814200    -2.8771927105
   45      C       6.3718593092    -3.4596225032    -1.7974940562
   46      H       5.4522238948    -3.6055641966    -3.7955185122
   47      H       6.5670802168    -4.1272192712    -0.9488867544
   48      H       6.0820913476    -2.4797139518    -1.3985833403
   49      C       7.7797254157    -3.5464002870    -2.4537993530
   50      H       8.0521003119    -4.5944687577    -2.6314461842
   51      C       9.0060433969    -3.1672681428    -1.5899799123
   52      H       7.8116084173    -3.1115137822    -3.4602158682
   53      H       9.8961303308    -3.4055750617    -2.1851816114
   54      H       8.8523621471    -3.7948999153    -0.7034110026
   55      H       8.9729042196    -2.0982250608    -1.3477781705
   56      C       8.7836515504     0.9794209870     0.9610867522
   57      C       8.4887056988     1.9516149131     0.0264590645
   58      N       7.9278488171     0.4801755421     1.8181874858
   59      C       7.1563017653     2.2918011380    -0.1226955214
   60      C       6.6200363345     0.8007749248     1.6698178592
   61      C       6.1782741510     1.7468687993     0.7405522599
   62      C       4.8342925449     2.3408787408     0.8567832019
   63      C       4.4448264557     3.5849649859     0.3144073357
   64      C       3.7016547586     1.5284939143     1.1665484979
   65      N       3.1854448441     4.0258779258     0.1540335976
   66      N       3.7791746681     0.2229194698     1.5851593356
   67      C       2.3782832756     1.9301150212     0.9781489110
   68      C       2.1163263000     3.2889751300     0.5484202203
   69      S       2.2824421368    -0.4225400462     1.7320597879
   70      N       1.4436578752     0.8998771955     1.2975145065
   71      C       0.8038515015     3.8259504330     0.3284215218
   72      S      -0.7190781921     2.9805309195     0.2086091922
   73      C       0.6296083759     5.0941051427    -0.0855651510
   74      C      -1.5234444066     4.3860778499    -0.5713573580
   75      S       1.7984599370     6.4027943166    -0.1310038360
   76      C      -0.6630392272     5.4106132635    -0.4684199327
   77      C      -2.8199511415     4.4988348405    -1.1885422148
   78      C       0.5095446036     7.4559655880    -0.6423711563
   79      C      -0.7186827882     6.8068402147    -0.7397298932
   80      N      -3.6411511055     3.4422361068    -0.9298459931
   81      S      -3.3303270081     5.7397344999    -2.2495033405
   82      C      -4.7419127920     3.6533845393    -1.7425532276
   83      C      -4.7436906797     4.7111706633    -2.5446195311
   84      C      10.2512441191     0.5788070140     0.9802047272
   85      H       9.2890050999     2.5459468276    -0.4046945557
   86      H       6.9027327119     3.1258921739    -0.7700662644
   87      H       6.0157387397     0.3577457550     2.4609572727
   88      H       5.1879209802     4.2560712866    -0.1135375917
   89      H       0.7213999499     8.5079985682    -0.7835586942
   90      H      -1.6014559900     7.3088883142    -1.1203730071
   91      H      -5.5259660697     2.9101546169    -1.6782435071
   92      H      -5.5109417901     5.1207883504    -3.1893218530
   93      H      10.6852391404     0.7376394663    -0.0141667192
   94      C      10.5344409178    -0.9286918380     1.2995051882
   95      H      10.8335058313     1.2354945299     1.6385502329
   96      H       9.8703433305    -1.5172790995     0.6543219350
   97      H      10.2769425996    -1.1472559871     2.3432227404
   98      C      12.0145692618    -1.3752449690     1.0624621823
   99      H      12.3899664221    -1.0787380127     0.0765181692
  100      C      12.2883032833    -2.8810060973     1.2846110289
  101      H      12.5587566235    -0.8334086117     1.8465874766
  102      H      11.8239988997    -3.4375265765     0.4609245622
  103      H      11.8031153946    -3.2455259802     2.1989014465
  104      C      13.7766334376    -3.2329816934     1.2498470883
  105      H      14.2187164568    -3.2426370667     0.2465069775
  106      C      13.8972405963    -4.6335956949     1.8110095712
  107      H      14.3695714566    -2.5857965275     1.9073429944
  108      H      14.9074649768    -5.0215178000     1.9918441406
  109      H      13.5434894775    -5.2997722378     1.0147370302
  110      H      13.2796381967    -4.7893660872     2.7049272748
 ----------------------------------------------------------------

    9   -5663.4870334600      8.57E-06 Convergence criterion met
 Total energy in the final basis set = -5663.4870334600

                    Orbital Energies (a.u.)
 --------------------------------------------------------------

 Alpha MOs
 -- Occupied --
-88.991 -88.980 -88.934 -88.926 -88.924 -88.919 -88.911 -88.909
-14.387 -14.383 -14.381 -14.369 -14.351 -14.346 -14.343 -14.334
-14.332 -14.323 -10.271 -10.266 -10.265 -10.260 -10.256 -10.255
-10.252 -10.250 -10.241 -10.239 -10.235 -10.234 -10.234 -10.232
-10.230 -10.227 -10.227 -10.226 -10.226 -10.225 -10.225 -10.225
-10.222 -10.222 -10.222 -10.221 -10.221 -10.217 -10.217 -10.216
-10.214 -10.209 -10.205 -10.203 -10.203 -10.201 -10.200 -10.193
-10.181 -10.180 -10.173 -10.173 -10.173 -10.173 -10.172 -10.170
-10.169 -10.169 -10.168 -10.164  -8.045  -8.035  -7.995  -7.988
 -7.983  -7.978  -7.970  -7.970  -6.010  -6.004  -6.003  -6.000
 -5.995  -5.993  -5.959  -5.956  -5.952  -5.952  -5.948  -5.947
 -5.945  -5.943  -5.943  -5.939  -5.939  -5.935  -5.935  -5.935
 -5.931  -5.931  -5.927  -5.926  -1.047  -1.017  -0.974  -0.967
 -0.957  -0.951  -0.945  -0.927  -0.921  -0.918  -0.913  -0.879
 -0.848  -0.848  -0.831  -0.825  -0.815  -0.813  -0.809  -0.808
 -0.803  -0.802  -0.800  -0.791  -0.788  -0.778  -0.769  -0.763
 -0.752  -0.748  -0.742  -0.742  -0.726  -0.722  -0.711  -0.711
 -0.696  -0.695  -0.676  -0.669  -0.653  -0.650  -0.640  -0.639
 -0.633  -0.633  -0.626  -0.622  -0.607  -0.603  -0.598  -0.594
 -0.594  -0.588  -0.580  -0.579  -0.576  -0.574  -0.566  -0.563
 -0.547  -0.544  -0.543  -0.539  -0.522  -0.521  -0.517  -0.515
 -0.509  -0.505  -0.500  -0.497  -0.483  -0.480  -0.475  -0.474
 -0.473  -0.472  -0.471  -0.467  -0.462  -0.459  -0.450  -0.449
 -0.447  -0.445  -0.441  -0.436  -0.436  -0.434  -0.432  -0.432
 -0.428  -0.426  -0.424  -0.421  -0.418  -0.416  -0.413  -0.411
 -0.410  -0.409  -0.409  -0.407  -0.402  -0.401  -0.398  -0.393
 -0.392  -0.389  -0.387  -0.385  -0.384  -0.382  -0.380  -0.379
 -0.376  -0.373  -0.370  -0.366  -0.363  -0.361  -0.360  -0.357
 -0.351  -0.350  -0.347  -0.344  -0.343  -0.342  -0.341  -0.336
 -0.335  -0.334  -0.332  -0.332  -0.324  -0.323  -0.320  -0.317
 -0.315  -0.310  -0.306  -0.304  -0.301  -0.301  -0.298  -0.294
 -0.292  -0.292  -0.290  -0.289  -0.287  -0.286  -0.281  -0.278
 -0.274  -0.272  -0.266  -0.261  -0.256  -0.252  -0.250  -0.250
 -0.246  -0.241  -0.231  -0.231  -0.196  -0.193

          Ground-State Mulliken Net Atomic Charges

     Atom                 Charge (a.u.)
  ----------------------------------------
      1 C                     0.277351
      2 C                    -0.114896
      3 N                    -0.489119
      4 C                    -0.098792
      5 C                     0.078142
      6 C                     0.059060
      7 C                     0.031006
      8 C                     0.058452
      9 C                     0.185366
     10 N                    -0.492235
     11 N                    -0.524982
     12 C                     0.202729
     13 C                     0.240623
     14 S                     0.630296
     15 N                    -0.513211
     16 C                    -0.214532
     17 S                     0.346608
     18 C                    -0.110128
     19 C                    -0.196762
     20 S                     0.286343
     21 C                     0.096401
     22 C                     0.055237
     23 C                    -0.318778
     24 C                    -0.049941
     25 N                    -0.430331
     26 S                     0.278542
     27 C                     0.117502
     28 C                    -0.306366
     29 C                    -0.253872
     30 H                     0.094464
     31 H                     0.103046
     32 H                     0.107857
     33 H                     0.106527
     34 H                     0.123708
     35 H                     0.116431
     36 H                     0.109624
     37 H                     0.130704
     38 H                     0.113107
     39 C                    -0.168706
     40 H                     0.108893
     41 H                     0.112070
     42 H                     0.109167
     43 C                    -0.173611
     44 H                     0.092616
     45 C                    -0.166971
     46 H                     0.094389
     47 H                     0.094716
     48 H                     0.101983
     49 C                    -0.206530
     50 H                     0.088324
     51 C                    -0.313808
     52 H                     0.080670
     53 H                     0.099558
     54 H                     0.104763
     55 H                     0.109146
     56 C                     0.294933
     57 C                    -0.113610
     58 N                    -0.483715
     59 C                    -0.088827
     60 C                     0.078140
     61 C                     0.048136
     62 C                     0.049461
     63 C                     0.045978
     64 C                     0.225550
     65 N                    -0.527943
     66 N                    -0.568549
     67 C                     0.183603
     68 C                     0.301021
     69 S                     0.646616
     70 N                    -0.571452
     71 C                    -0.222406
     72 S                     0.363733
     73 C                    -0.121801
     74 C                    -0.230261
     75 S                     0.303991
     76 C                     0.181412
     77 C                     0.034111
     78 C                    -0.300314
     79 C                    -0.104010
     80 N                    -0.439357
     81 S                     0.288887
     82 C                     0.133677
     83 C                    -0.308747
     84 C                    -0.242232
     85 H                     0.098682
     86 H                     0.091872
     87 H                     0.126617
     88 H                     0.105587
     89 H                     0.129902
     90 H                     0.101884
     91 H                     0.115380
     92 H                     0.133270
     93 H                     0.099509
     94 C                    -0.187430
     95 H                     0.111867
     96 H                     0.104622
     97 H                     0.109443
     98 C                    -0.178087
     99 H                     0.084714
    100 C                    -0.173733
    101 H                     0.088786
    102 H                     0.097610
    103 H                     0.092579
    104 C                    -0.172321
    105 H                     0.095244
    106 C                    -0.317568
    107 H                     0.092672
    108 H                     0.091356
    109 H                     0.097834
    110 H                     0.101834
  ----------------------------------------
  Sum of atomic charges =     0.000000

                    Cartesian Multipole Moments
 -----------------------------------------------------------------
    Charge (ESU x 10^10)
                 0.0000
    Dipole Moment (Debye)
         X      -1.6537      Y       3.7910      Z      -3.6059
       Tot       5.4871
    Quadrupole Moments (Debye-Ang)
        XX    -394.2084     XY     -12.7148     YY    -420.6467
        XZ      -5.2695     YZ      -1.3544     ZZ    -440.5056

 Total job time:  88.77s(wall), 968.19s(cpu)
        *  Thank you very much for using Q-Chem.  Have a nice day.  *
