 Q-Chem 4.4, Q-Chem, Inc., Pleasanton, CA (2016)
 Q-Chem 4.4.2 for Intel X86 Linux

User input:
--------------------------------------------------------------
$comment
SP
$end

$rem
MEM_STATIC 5000
MEM_TOTAL 20000
JOBTYPE SP
EXCHANGE B3LYP
BASIS 6-31g(d,p)
$end

$molecule
0 1
C           3.335000    -17.752000     -6.129000
C           2.920000    -18.174000     -4.835000
N           2.631000    -16.973000     -6.881000
C           1.590000    -18.008000     -4.489000
C           1.360000    -16.703000     -6.523000
C           0.719000    -17.344000     -5.381000
C          -0.611000    -16.754000     -4.942000
C          -0.912000    -15.342000     -4.944000
C          -1.600000    -17.543000     -4.459000
N          -2.005000    -14.875000     -4.420000
N          -1.531000    -18.906000     -4.426000
C          -2.786000    -17.089000     -3.956000
C          -2.952000    -15.694000     -3.951000
S          -3.002000    -19.450000     -3.922000
N          -3.732000    -18.010000     -3.562000
C          -4.146000    -15.094000     -3.306000
S          -5.190000    -15.777000     -1.940000
C          -4.540000    -13.801000     -3.482000
C          -6.050000    -14.292000     -1.641000
S          -3.926000    -12.618000     -4.589000
C          -5.520000    -13.395000     -2.526000
C          -6.971000    -13.989000     -0.631000
C          -5.180000    -11.581000     -3.941000
C          -5.929000    -12.129000     -2.872000
N          -7.181000    -12.730000     -0.249000
S          -7.415000    -15.193000      0.564000
C          -7.693000    -12.621000      1.000000
C          -7.923000    -13.869000      1.643000
C           4.715000    -18.053000     -6.638000
H           3.630000    -18.790000     -4.290000
H           1.269000    -18.317000     -3.499000
H           0.916000    -15.868000     -7.062000
H          -0.172000    -14.573000     -5.159000
H          -5.238000    -10.589000     -4.369000
H          -6.762000    -11.645000     -2.376000
H          -7.888000    -11.683000      1.504000
H          -8.463000    -14.043000      2.565000
H           4.928000    -18.986000     -6.101000
C           5.836000    -17.014000     -6.335000
H           4.700000    -18.303000     -7.706000
H           6.834000    -17.469000     -6.311000
H           5.786000    -16.582000     -5.328000
C           5.760000    -15.862000     -7.379000
H           5.485000    -16.102000     -8.413000
C           6.995000    -14.981000     -7.431000
H           4.950000    -15.196000     -7.058000
H           7.918000    -15.503000     -7.714000
H           7.073000    -14.648000     -6.389000
C           6.792000    -13.973000     -8.478000
H           6.688000    -14.467000     -9.452000
C           7.959000    -12.922000     -8.535000
H           5.848000    -13.428000     -8.355000
H           7.890000    -12.199000     -9.357000
H           8.914000    -13.460000     -8.567000
H           8.118000    -12.281000     -7.659000
C         -11.120000    -19.321000     10.700000
C          -9.783000    -19.406000     10.367000
N         -12.099000    -19.186000      9.840000
C          -9.480000    -19.529000      9.023000
C         -11.810000    -19.317000      8.523000
C         -10.501000    -19.442000      8.049000
C         -10.193000    -19.206000      6.627000
C          -8.927000    -18.843000      6.118000
C         -11.039000    -19.726000      5.601000
N          -8.540000    -18.894000      4.832000
N         -12.277000    -20.276000      5.826000
C         -10.664000    -19.835000      4.261000
C          -9.386000    -19.291000      3.848000
S         -12.903000    -20.869000      4.435000
N         -11.669000    -20.457000      3.461000
C          -8.890000    -19.331000      2.502000
S          -9.482000    -20.255000      1.144000
C          -7.686000    -18.820000      2.187000
C          -7.951000    -20.032000      0.229000
S          -6.655000    -17.772000      3.146000
C          -7.240000    -19.121000      0.911000
C          -7.495000    -20.639000     -0.995000
C          -5.582000    -17.676000      1.778000
C          -6.035000    -18.400000      0.678000
N          -8.474000    -21.302000     -1.673000
S          -5.883000    -20.676000     -1.566000
C          -7.806000    -21.950000     -2.698000
C          -6.486000    -21.829000     -2.770000
C         -11.374000    -19.308000     12.200000
H          -9.026000    -19.179000     11.112000
H          -8.438000    -19.490000      8.720000
H         -12.694000    -19.147000      7.909000
H          -8.118000    -18.573000      6.795000
H          -4.708000    -17.041000      1.845000
H          -5.440000    -18.502000     -0.223000
H          -8.422000    -22.539000     -3.365000
H          -5.775000    -22.163000     -3.515000
H         -10.566000    -19.845000     12.711000
C         -12.685000    -20.027000     12.668000
H         -11.320000    -18.289000     12.603000
H         -12.701000    -21.006000     12.173000
H         -13.564000    -19.462000     12.334000
C         -12.798000    -20.228000     14.215000
H         -11.897000    -20.678000     14.647000
C         -14.042000    -21.018000     14.684000
H         -12.915000    -19.201000     14.584000
H         -13.906000    -22.069000     14.400000
H         -14.948000    -20.685000     14.162000
C         -14.223000    -21.008000     16.203000
H         -13.532000    -21.662000     16.748000
C         -15.626000    -21.510000     16.469000
H         -14.175000    -19.994000     16.618000
H         -15.997000    -21.454000     17.500000
H         -15.585000    -22.594000     16.307000
H         -16.370000    -21.077000     15.788000
$end

--------------------------------------------------------------

             Standard Nuclear Orientation (Angstroms)
    I     Atom           X                Y                Z
 ----------------------------------------------------------------
    1      C      10.8815195797     3.0750063279    -0.8559738103
    2      C       9.5756206297     3.5004220741    -1.2279877551
    3      N      11.1341513944     1.9084307280    -0.3627806069
    4      C       8.4940645800     2.7724985137    -0.7626536797
    5      C      10.1019498515     1.1251203021     0.0080154983
    6      C       8.7201377777     1.5892618004    -0.0250611163
    7      C       7.6520427508     0.5251297119     0.1660328701
    8      C       7.7330636522    -0.8113961859    -0.3738589137
    9      C       6.5040878639     0.7987490491     0.8303091950
   10      N       6.7311973391    -1.6358656320    -0.3119878947
   11      N       6.2599856393     1.9851615436     1.4599586982
   12      C       5.4552254274    -0.0656491737     0.9660453424
   13      C       5.6148690641    -1.3191217925     0.3521021012
   14      S       4.8330548872     1.8173021904     2.2658649372
   15      N       4.3751996486     0.3211782820     1.7291323862
   16      C       4.4841998256    -2.2796728774     0.3278186427
   17      S       2.6687074405    -1.9329901418     0.4064283148
   18      C       4.6107545053    -3.5999227448     0.0131995069
   19      C       2.1807931931    -3.5447860232    -0.0388578001
   20      S       6.0543507227    -4.5252973716    -0.2350861376
   21      C       3.3506810506    -4.2241259023    -0.2353106684
   22      C       0.8989047584    -4.0414777525    -0.3038283022
   23      C       4.9674720330    -5.8821913429    -0.4479768713
   24      C       3.5879677176    -5.5656556375    -0.4190115312
   25      N       0.7251666499    -5.1217200393    -1.0640892254
   26      S      -0.5041299713    -2.9948647892    -0.1995601270
   27      C      -0.5071131947    -5.2003480775    -1.6202636729
   28      C      -1.3726507812    -4.1286097670    -1.2651937076
   29      C      12.0896306912     3.9062640741    -1.1777813642
   30      H       9.5114469659     4.4886372788    -1.6750822082
   31      H       7.4953923363     3.0845868901    -1.0522682423
   32      H      10.3757467733     0.0867764213     0.1862266952
   33      H       8.5184329070    -1.1347730255    -1.0548938272
   34      H       5.4386850563    -6.8362511847    -0.6437831656
   35      H       2.7778235130    -6.2808567121    -0.4984771885
   36      H      -0.8235696610    -5.9772854530    -2.3044483114
   37      H      -2.4361775157    -4.0536462721    -1.4529471611
   38      H      11.6492901962     4.9113932289    -1.1712521480
   39      C      12.7902921229     3.6571090477    -2.5470754638
   40      H      12.8208232641     3.8795772662    -0.3604722210
   41      H      13.3281840271     4.5417730633    -2.9099072138
   42      H      12.0975319741     3.4854306871    -3.3800117859
   43      C      13.7361809658     2.4274688787    -2.4202080072
   44      H      14.2764510955     2.2701208981    -1.4790752854
   45      C      14.7421294002     2.2916521324    -3.5487963106
   46      H      13.1054948600     1.5332860735    -2.4934824698
   47      H      15.4455450161     3.1293357018    -3.6382094465
   48      H      14.0868857493     2.2744300249    -4.4280551786
   49      C      15.5803893155     1.1190467934    -3.2734800680
   50      H      16.1373916487     1.2731506573    -2.3409950011
   51      C      16.5791202470     0.8054691003    -4.4456338791
   52      H      14.9861369966     0.2172387841    -3.0813954618
   53      H      17.2822856054    -0.0126681142    -4.2471799121
   54      H      17.1145699836     1.7264089629    -4.7057422202
   55      H      16.1585261473     0.5342557885    -5.4218930367
   56      C     -11.1858341036     0.8019519073    -2.4336784772
   57      C     -10.0936678036     1.4681120536    -2.9524138940
   58      N     -11.1556348609     0.0161372200    -1.3858954448
   59      C      -8.9287207488     1.4339663701    -2.2074263560
   60      C     -10.0212254644    -0.0124696931    -0.6459846627
   61      C      -8.8506671455     0.6430770021    -1.0382011243
   62      C      -7.5552520553     0.2931150696    -0.4282253955
   63      C      -6.2919644892     0.5097932994    -1.0204762463
   64      C      -7.4435405156     0.0881600242     0.9804285582
   65      N      -5.1017357292     0.4694715584    -0.3976635490
   66      N      -8.5151180573    -0.0184349695     1.8325600502
   67      C      -6.2323868008     0.0789901953     1.6740628951
   68      C      -4.9972210563     0.1702082216     0.9218436084
   69      S      -8.0058677414    -0.1307797979     3.3838333193
   70      N      -6.4100546939    -0.0710078264     3.0821977300
   71      C      -3.6901967064     0.1620836494     1.5142567581
   72      S      -3.2475681483     0.3518102024     3.1924962507
   73      C      -2.5815969316     0.2651811377     0.7590485435
   74      C      -1.5403974462     0.7310039725     2.7769300362
   75      S      -2.4220861014     0.1044115199    -0.9815419956
   76      C      -1.4091606863     0.4664103492     1.4679865204
   77      C      -0.4592619907     1.2054226880     3.6019354962
   78      C      -0.7002006695     0.2648419685    -0.7782155814
   79      C      -0.3198101990     0.4112010279     0.5534251793
   80      N      -0.7182720715     1.1290052970     4.9378876512
   81      S       0.9955188718     1.9172142811     3.0515543827
   82      C       0.3446055034     1.7862145179     5.5338073611
   83      C       1.2728401785     2.3268760281     4.7538775441
   84      C     -12.4557901684     0.9863976913    -3.2509154967
   85      H     -10.1119149140     1.8145351504    -3.9816179947
   86      H      -8.0250003174     1.8554040567    -2.6372794218
   87      H     -10.1047671880    -0.7275492826     0.1719602994
   88      H      -6.2180720989     0.8314128096    -2.0581711944
   89      H      -0.0627810039     0.1813237473    -1.6490260526
   90      H       0.7101734152     0.5999966542     0.8357724228
   91      H       0.3259912093     1.8308796158     6.6149754965
   92      H       2.2173876511     2.8018403287     4.9869890734
   93      H     -12.4162983619     1.9497875977    -3.7730977307
   94      C     -13.7868191006     1.0375434987    -2.4260202983
   95      H     -12.5212615122     0.2438186301    -4.0558849625
   96      H     -13.6210837380     1.7457118747    -1.6045878052
   97      H     -13.9975032931     0.0532419502    -1.9899186672
   98      C     -15.0420344520     1.4821012134    -3.2464969036
   99      H     -14.8672935111     2.4017961270    -3.8161914440
  100      C     -16.3443429144     1.6264891997    -2.4250702312
  101      H     -15.1911426650     0.6402954124    -3.9347619211
  102      H     -16.2504513774     2.5161661396    -1.7899227508
  103      H     -16.4784738082     0.7832690542    -1.7357243895
  104      C     -17.5818288992     1.8539088222    -3.2952028377
  105      H     -17.6656264756     2.8645770740    -3.7120357190
  106      C     -18.7808490319     1.6335728139    -2.3980006504
  107      H     -17.6610091893     1.1151155323    -4.1018253990
  108      H     -19.7713220443     1.6229384178    -2.8697931060
  109      H     -18.8448089150     2.5298158538    -1.7690026004
  110      H     -18.6735709477     0.7529503225    -1.7516405028
 ----------------------------------------------------------------

   10   -5663.4708774030      7.34E-06 Convergence criterion met
 Total energy in the final basis set = -5663.4708774030

                    Orbital Energies (a.u.)
 --------------------------------------------------------------

 Alpha MOs
 -- Occupied --
-88.996 -88.994 -88.934 -88.924 -88.921 -88.921 -88.913 -88.910
-14.394 -14.385 -14.384 -14.373 -14.353 -14.351 -14.345 -14.341
-14.326 -14.326 -10.271 -10.269 -10.266 -10.263 -10.259 -10.256
-10.253 -10.249 -10.246 -10.243 -10.241 -10.240 -10.237 -10.235
-10.234 -10.234 -10.232 -10.228 -10.228 -10.227 -10.227 -10.227
-10.225 -10.225 -10.225 -10.224 -10.224 -10.223 -10.220 -10.217
-10.216 -10.211 -10.204 -10.202 -10.200 -10.199 -10.195 -10.188
-10.187 -10.185 -10.184 -10.177 -10.176 -10.176 -10.176 -10.175
-10.169 -10.169 -10.167 -10.166  -8.050  -8.048  -7.995  -7.983
 -7.982  -7.980  -7.973  -7.970  -6.015  -6.013  -6.010  -6.009
 -6.008  -6.006  -5.959  -5.956  -5.952  -5.947  -5.945  -5.944
 -5.943  -5.942  -5.940  -5.939  -5.939  -5.937  -5.936  -5.935
 -5.933  -5.931  -5.929  -5.927  -1.035  -1.021  -0.974  -0.967
 -0.966  -0.960  -0.952  -0.947  -0.923  -0.912  -0.901  -0.882
 -0.849  -0.844  -0.837  -0.833  -0.817  -0.816  -0.810  -0.810
 -0.804  -0.803  -0.802  -0.795  -0.790  -0.789  -0.771  -0.770
 -0.754  -0.749  -0.744  -0.741  -0.726  -0.720  -0.713  -0.705
 -0.698  -0.690  -0.679  -0.678  -0.659  -0.655  -0.650  -0.642
 -0.637  -0.635  -0.633  -0.628  -0.610  -0.608  -0.599  -0.596
 -0.595  -0.591  -0.581  -0.580  -0.579  -0.576  -0.574  -0.569
 -0.554  -0.548  -0.544  -0.541  -0.524  -0.522  -0.518  -0.512
 -0.509  -0.504  -0.498  -0.495  -0.492  -0.485  -0.480  -0.477
 -0.476  -0.475  -0.472  -0.470  -0.465  -0.462  -0.456  -0.450
 -0.449  -0.443  -0.440  -0.439  -0.437  -0.435  -0.434  -0.429
 -0.429  -0.426  -0.423  -0.422  -0.420  -0.420  -0.414  -0.413
 -0.412  -0.411  -0.410  -0.407  -0.405  -0.404  -0.401  -0.400
 -0.397  -0.395  -0.392  -0.390  -0.386  -0.385  -0.384  -0.381
 -0.380  -0.370  -0.369  -0.369  -0.366  -0.364  -0.362  -0.358
 -0.356  -0.353  -0.352  -0.347  -0.345  -0.345  -0.343  -0.338
 -0.335  -0.335  -0.333  -0.332  -0.330  -0.325  -0.321  -0.319
 -0.315  -0.314  -0.310  -0.308  -0.306  -0.304  -0.298  -0.297
 -0.297  -0.295  -0.292  -0.291  -0.290  -0.290  -0.287  -0.277
 -0.276  -0.276  -0.268  -0.268  -0.258  -0.252  -0.251  -0.249
 -0.246  -0.239  -0.232  -0.230  -0.198  -0.188

          Ground-State Mulliken Net Atomic Charges

     Atom                 Charge (a.u.)
  ----------------------------------------
      1 C                     0.273276
      2 C                    -0.108405
      3 N                    -0.455702
      4 C                    -0.047385
      5 C                     0.063696
      6 C                     0.011019
      7 C                    -0.015839
      8 C                     0.066121
      9 C                     0.258116
     10 N                    -0.496348
     11 N                    -0.555991
     12 C                     0.207005
     13 C                     0.264521
     14 S                     0.602610
     15 N                    -0.563223
     16 C                    -0.221480
     17 S                     0.300574
     18 C                    -0.091693
     19 C                    -0.197411
     20 S                     0.293156
     21 C                     0.134491
     22 C                     0.039578
     23 C                    -0.313363
     24 C                    -0.061698
     25 N                    -0.434905
     26 S                     0.288964
     27 C                     0.127983
     28 C                    -0.324823
     29 C                    -0.221059
     30 H                     0.093114
     31 H                     0.107572
     32 H                     0.106588
     33 H                     0.118290
     34 H                     0.121702
     35 H                     0.122732
     36 H                     0.120235
     37 H                     0.139387
     38 H                     0.080595
     39 C                    -0.184376
     40 H                     0.117827
     41 H                     0.095696
     42 H                     0.094698
     43 C                    -0.172747
     44 H                     0.091605
     45 C                    -0.153846
     46 H                     0.107131
     47 H                     0.085821
     48 H                     0.087071
     49 C                    -0.174825
     50 H                     0.097716
     51 C                    -0.327774
     52 H                     0.092120
     53 H                     0.096371
     54 H                     0.096413
     55 H                     0.100473
     56 C                     0.295887
     57 C                    -0.113628
     58 N                    -0.483789
     59 C                    -0.088791
     60 C                     0.076993
     61 C                     0.048466
     62 C                     0.047780
     63 C                     0.045315
     64 C                     0.227179
     65 N                    -0.527615
     66 N                    -0.569967
     67 C                     0.179387
     68 C                     0.300673
     69 S                     0.630722
     70 N                    -0.559655
     71 C                    -0.211143
     72 S                     0.350731
     73 C                    -0.123324
     74 C                    -0.214440
     75 S                     0.291193
     76 C                     0.180175
     77 C                     0.026979
     78 C                    -0.295633
     79 C                    -0.113246
     80 N                    -0.430125
     81 S                     0.297234
     82 C                     0.136741
     83 C                    -0.312019
     84 C                    -0.242636
     85 H                     0.099164
     86 H                     0.092275
     87 H                     0.126248
     88 H                     0.105928
     89 H                     0.137575
     90 H                     0.119261
     91 H                     0.112338
     92 H                     0.132533
     93 H                     0.100282
     94 C                    -0.177026
     95 H                     0.112622
     96 H                     0.092954
     97 H                     0.111390
     98 C                    -0.179557
     99 H                     0.085715
    100 C                    -0.169884
    101 H                     0.089923
    102 H                     0.092501
    103 H                     0.093633
    104 C                    -0.172922
    105 H                     0.096097
    106 C                    -0.317668
    107 H                     0.093252
    108 H                     0.092185
    109 H                     0.098421
    110 H                     0.101947
  ----------------------------------------
  Sum of atomic charges =     0.000000

                    Cartesian Multipole Moments
 -----------------------------------------------------------------
    Charge (ESU x 10^10)
                 0.0000
    Dipole Moment (Debye)
         X       0.0866      Y       2.6328      Z      -2.4059
       Tot       3.5676
    Quadrupole Moments (Debye-Ang)
        XX    -461.7368     XY       7.1562     YY    -432.0931
        XZ      12.1972     YZ       0.8321     ZZ    -432.9775

 Total job time:  96.83s(wall), 1054.88s(cpu)
        *  Thank you very much for using Q-Chem.  Have a nice day.  *
