 Q-Chem 4.4, Q-Chem, Inc., Pleasanton, CA (2016)
 Q-Chem 4.4.2 for Intel X86 Linux

User input:
--------------------------------------------------------------
$comment
SP
$end

$rem
MEM_STATIC 5000
MEM_TOTAL 20000
JOBTYPE SP
EXCHANGE B3LYP
BASIS 6-31g(d,p)
$end

$molecule
0 1
C           3.248000     -4.052000     -9.660000
C           3.530000     -3.363000     -8.483000
N           2.340000     -3.639000    -10.539000
C           2.804000     -2.187000     -8.279000
C           1.680000     -2.500000    -10.296000
C           1.799000     -1.624000     -9.181000
C           1.128000     -0.300000     -9.096000
C           1.871000      0.805000     -8.610000
C          -0.222000     -0.059000     -9.558000
N           1.325000      2.004000     -8.474000
N          -1.038000     -0.994000    -10.077000
C          -0.706000      1.221000     -9.376000
C           0.060000      2.259000     -8.852000
S          -2.450000     -0.222000    -10.441000
N          -1.994000      1.212000     -9.851000
C          -0.534000      3.624000     -8.667000
S          -2.220000      4.053000     -9.005000
C           0.170000      4.689000     -8.194000
C          -1.788000      5.782000     -8.944000
S           1.723000      4.680000     -7.343000
C          -0.523000      5.882000     -8.333000
C          -2.613000      6.881000     -9.127000
C           1.541000      6.458000     -7.376000
C           0.343000      6.961000     -7.931000
N          -3.793000      6.505000     -9.549000
S          -2.379000      8.613000     -8.813000
C          -4.429000      7.605000     -9.958000
C          -3.797000      8.795000     -9.747000
C           3.915000     -5.470000     -9.778000
H           4.187000     -3.778000     -7.724000
H           2.940000     -1.580000     -7.389000
H           0.986000     -2.164000    -11.065000
H           2.823000      0.674000     -8.098000
H           2.452000      6.940000     -7.046000
H           0.121000      8.020000     -8.000000
H          -5.410000      7.492000    -10.401000
H          -4.099000      9.786000    -10.059000
H           4.857000     -5.376000    -10.334000
C           3.057000     -6.585000    -10.301000
H           4.197000     -5.778000     -8.764000
H           2.473000     -6.459000    -11.221000
H           2.305000     -6.755000     -9.522000
C           3.955000     -7.834000    -10.518000
H           4.609000     -7.637000    -11.377000
C           3.101000     -9.123000    -10.919000
H           4.512000     -8.078000     -9.605000
H           2.396000     -9.008000    -11.752000
H           2.439000     -9.292000    -10.061000
C           4.025000    -10.357000    -11.145000
H           4.897000     -9.907000    -11.635000
C           3.376000    -11.431000    -12.054000
H           4.415000    -10.847000    -10.244000
H           2.967000    -11.079000    -13.009000
H           2.529000    -11.731000    -11.424000
H           4.034000    -12.302000    -12.160000
C           4.668000      6.150000    -10.428000
C           4.651000      4.826000     -9.958000
N           3.674000      6.606000    -11.190000
C           3.669000      3.888000    -10.331000
C           2.661000      5.682000    -11.516000
C           2.682000      4.327000    -11.258000
C           1.600000      3.379000    -11.798000
C           0.257000      3.791000    -12.027000
C           1.738000      1.974000    -12.088000
N          -0.658000      3.112000    -12.619000
N           2.916000      1.353000    -11.892000
C           0.761000      1.169000    -12.533000
C          -0.441000      1.812000    -12.930000
S           2.728000     -0.199000    -12.284000
N           1.157000     -0.093000    -12.718000
C          -1.486000      0.984000    -13.632000
S          -1.196000     -0.501000    -14.583000
C          -2.801000      1.270000    -13.598000
C          -2.971000     -0.729000    -14.942000
S          -3.697000      2.449000    -12.702000
C          -3.568000      0.366000    -14.370000
C          -3.546000     -1.758000    -15.813000
C          -5.119000      1.741000    -13.284000
C          -4.894000      0.675000    -14.178000
N          -2.857000     -2.835000    -15.891000
S          -4.982000     -1.629000    -16.784000
C          -3.519000     -3.708000    -16.784000
C          -4.609000     -3.189000    -17.408000
C           5.806000      7.103000    -10.115000
H           5.517000      4.620000     -9.337000
H           3.681000      2.864000     -9.968000
H           1.864000      6.104000    -12.127000
H           0.071000      4.851000    -11.856000
H          -6.092000      2.090000    -12.965000
H          -5.607000      0.006000    -14.647000
H          -3.075000     -4.684000    -16.933000
H          -5.228000     -3.616000    -18.186000
H           5.647000      8.141000    -10.431000
C           7.267000      6.673000    -10.580000
H           5.851000      7.174000     -9.021000
H           7.447000      7.095000    -11.577000
H           7.344000      5.585000    -10.699000
C           8.354000      7.164000     -9.565000
H           9.303000      6.859000    -10.023000
C           8.317000      6.624000     -8.085000
H           8.317000      8.260000     -9.529000
H           8.410000      5.531000     -8.111000
H           7.364000      6.943000     -7.645000
C           9.525000      7.098000     -7.249000
H          10.510000      7.238000     -7.710000
C           9.526000      6.321000     -5.900000
H           9.302000      8.161000     -7.092000
H          10.106000      6.849000     -5.133000
H          10.118000      5.409000     -6.044000
H           8.562000      6.020000     -5.473000
$end

--------------------------------------------------------------

             Standard Nuclear Orientation (Angstroms)
    I     Atom           X                Y                Z
 ----------------------------------------------------------------
    1      C       4.1263042076    -4.5282839030    -1.2323798151
    2      C       3.0482674971    -4.9474293900    -2.0080910446
    3      N       4.2262234467    -3.2976384403    -0.7392247778
    4      C       2.0539771860    -3.9921088405    -2.2326292931
    5      C       3.2392021733    -2.4257325384    -0.9790978775
    6      C       2.0439713700    -2.6193807847    -1.7265506744
    7      C       0.9403433727    -1.6252511182    -1.7909979398
    8      C      -0.3944919899    -2.0878730080    -1.6749568189
    9      C       1.1574585672    -0.1977381705    -1.8863539911
   10      N      -1.4263231250    -1.2618694179    -1.7601364990
   11      N       2.3620710619     0.3955114132    -1.9663894146
   12      C       0.0227910989     0.5842225672    -1.9691014450
   13      C      -1.2676232326     0.0668996791    -1.8917458871
   14      S       2.0714741810     2.0170053363    -2.0587739925
   15      N       0.4611382554     1.8803063586    -2.0816562144
   16      C      -2.4580320393     0.9727707773    -2.0040420423
   17      S      -2.3825834182     2.7173380819    -2.3068182389
   18      C      -3.7434541907     0.5360847685    -1.9012547750
   19      C      -4.0872914028     2.8735821858    -1.8074742019
   20      S      -4.3442883037    -1.1258128664    -2.0160834281
   21      C      -4.6488051697     1.5819777079    -1.8049917806
   22      C      -4.8635143387     4.0206421354    -1.7470885617
   23      C      -5.9322258248    -0.3786135637    -1.6760178006
   24      C      -5.9586530185     1.0300053494    -1.5695642371
   25      N      -4.1274955351     5.0847250550    -1.9416749460
   26      S      -6.6110006365     4.2689042553    -1.5525800551
   27      C      -4.8714887538     6.1400339582    -1.6031868233
   28      C      -6.1713566263     5.8948482572    -1.2711138101
   29      C       5.3281070766    -5.5382743004    -1.1607819016
   30      H       3.0429285430    -5.9164370580    -2.4989582721
   31      H       1.1761116891    -4.2128306107    -2.8323617913
   32      H       3.3284704378    -1.4461728167    -0.5117790050
   33      H      -0.6440859267    -3.1439878624    -1.7640257866
   34      H      -6.6784014580    -1.1395199699    -1.4878998443
   35      H      -6.8640938431     1.5920980489    -1.3701784042
   36      H      -4.4134217381     7.1199279529    -1.6400835489
   37      H      -6.9179575830     6.5867775362    -0.9044397258
   38      H       5.2210757552    -6.1568681421    -0.2601032934
   39      C       6.7087895052    -4.9647078788    -1.2936562455
   40      H       5.2214020896    -6.2255376558    -2.0086422238
   41      H       7.0171056450    -4.1001650183    -0.6929576519
   42      H       6.7725972174    -4.6132768775    -2.3298366483
   43      C       7.7377654289    -6.0916353153    -1.0025598675
   44      H       7.6960885181    -6.3208824361     0.0698741830
   45      C       9.2381389029    -5.6185391314    -1.2795028929
   46      H       7.5461839216    -6.9680950820    -1.6338037217
   47      H       9.5541415584    -4.6793828175    -0.8080511564
   48      H       9.2560631374    -5.3728182748    -2.3482727383
   49      C      10.2506689722    -6.7606430178    -0.9664700331
   50      H       9.8092341348    -7.2241031642    -0.0757826710
   51      C      11.6745462248    -6.2302861455    -0.6627379844
   52      H      10.3252807622    -7.5647596333    -1.7093230128
   53      H      11.7486784977    -5.4359774968     0.0901153724
   54      H      11.9269066483    -5.7871094860    -1.6344466162
   55      H      12.3705614129    -7.0594016020    -0.4867510026
   56      C      -5.3237554577    -2.2305811769     2.2466951346
   57      C      -4.2536650657    -2.8003365711     1.5364484565
   58      N      -5.2831358787    -0.9488529404     2.6102041132
   59      C      -3.0583169817    -2.1096934625     1.2581463640
   60      C      -4.1093525319    -0.2418894502     2.2805735953
   61      C      -2.9498256907    -0.7846783339     1.7668540881
   62      C      -1.6695204508     0.0469456334     1.5929343654
   63      C      -1.6872456538     1.4459170248     1.3314026022
   64      C      -0.3105761940    -0.4330191413     1.6014971819
   65      N      -0.6734841353     2.2339634136     1.3307152071
   66      N      -0.0543277244    -1.7424546469     1.7788566428
   67      C       0.7846425723     0.3202018850     1.4178318894
   68      C       0.5786934927     1.7249885726     1.4132124744
   69      S       1.5429260151    -1.9472506484     1.7113948796
   70      N       1.9225265271    -0.3770013733     1.4708669908
   71      C       1.7932966952     2.6166370777     1.4239364549
   72      S       3.4085886935     2.1964526832     2.0626874510
   73      C       1.8000220010     3.8624197469     0.9138802704
   74      C       4.1150255397     3.8143624162     1.5992167636
   75      S       0.6140617113     4.7386688305     0.0075918312
   76      C       3.0479608496     4.5066077105     1.0846417936
   77      C       5.4692617190     4.2810720297     1.9095931596
   78      C       1.7596985272     5.9630243489    -0.2172233162
   79      C       2.9844222736     5.7169191557     0.4352343292
   80      N       6.3392662162     3.3485494039     2.0288731963
   81      S       5.9736141194     5.9181468767     2.2048770934
   82      C       7.5755871385     3.9500923920     2.3567125023
   83      C       7.5337888806     5.2912299363     2.5722119059
   84      C      -6.5467479277    -3.0345389987     2.6456478122
   85      H      -4.4512723816    -3.8408646424     1.2992024209
   86      H      -2.2359078009    -2.5724542198     0.7196441625
   87      H      -4.1286994055     0.8040526443     2.5842919411
   88      H      -2.6794311742     1.8964728938     1.3334767701
   89      H       1.5424892836     6.8313193156    -0.8248210411
   90      H       3.9057371742     6.2883117202     0.4111430195
   91      H       8.4280716970     3.2908758525     2.4597495415
   92      H       8.3126978712     5.9606069855     2.9128130661
   93      H      -7.3659155768    -2.4527234363     3.0850064517
   94      C      -6.3117661292    -4.3125701742     3.5660096262
   95      H      -6.9778850596    -3.4159935124     1.7115625765
   96      H      -6.4143903588    -4.0032700045     4.6140051761
   97      H      -5.2874094139    -4.6929748562     3.4669157430
   98      C      -7.3268504116    -5.4547069312     3.2224946660
   99      H      -7.0997868779    -6.2411965474     3.9527454691
  100      C      -7.3033511070    -6.0897697357     1.7804433434
  101      H      -8.3401110055    -5.0794819046     3.4132566858
  102      H      -6.3080842729    -6.5169528540     1.6045669315
  103      H      -7.5365943523    -5.2892115852     1.0675098007
  104      C      -8.2703849507    -7.2849174076     1.6415059925
  105      H      -8.4599038450    -7.9583747839     2.4858304272
  106      C      -7.9940832665    -7.9866276001     0.2795988058
  107      H      -9.2528639298    -6.7959572493     1.6413680070
  108      H      -8.8540959987    -8.5851350136    -0.0454242341
  109      H      -7.2338219216    -8.7578873069     0.4531071694
  110      H      -7.6497008245    -7.3725069511    -0.5609263646
 ----------------------------------------------------------------

   10   -5663.4472695220      3.81E-06 Convergence criterion met
 Total energy in the final basis set = -5663.4472695220

                    Orbital Energies (a.u.)
 --------------------------------------------------------------

 Alpha MOs
 -- Occupied --
-88.991 -88.987 -88.929 -88.926 -88.919 -88.917 -88.910 -88.909
-14.374 -14.373 -14.370 -14.369 -14.348 -14.346 -14.339 -14.334
-14.326 -14.325 -10.266 -10.263 -10.261 -10.259 -10.251 -10.248
-10.243 -10.241 -10.241 -10.236 -10.235 -10.234 -10.232 -10.230
-10.230 -10.229 -10.228 -10.228 -10.227 -10.224 -10.223 -10.222
-10.221 -10.221 -10.220 -10.220 -10.220 -10.218 -10.217 -10.214
-10.214 -10.209 -10.207 -10.207 -10.199 -10.197 -10.192 -10.191
-10.188 -10.187 -10.186 -10.185 -10.185 -10.183 -10.180 -10.178
-10.176 -10.176 -10.174 -10.170  -8.045  -8.042  -7.990  -7.988
 -7.976  -7.974  -7.970  -7.969  -6.010  -6.007  -6.004  -6.003
 -6.001  -6.000  -5.954  -5.952  -5.951  -5.949  -5.947  -5.945
 -5.941  -5.939  -5.937  -5.935  -5.935  -5.934  -5.933  -5.931
 -5.931  -5.930  -5.927  -5.926  -1.041  -1.029  -0.984  -0.975
 -0.966  -0.963  -0.940  -0.924  -0.914  -0.908  -0.894  -0.885
 -0.842  -0.837  -0.827  -0.826  -0.816  -0.815  -0.810  -0.809
 -0.801  -0.800  -0.794  -0.793  -0.780  -0.776  -0.766  -0.762
 -0.749  -0.749  -0.741  -0.739  -0.718  -0.717  -0.706  -0.704
 -0.691  -0.690  -0.677  -0.676  -0.655  -0.650  -0.642  -0.641
 -0.632  -0.631  -0.622  -0.620  -0.608  -0.607  -0.600  -0.597
 -0.596  -0.589  -0.585  -0.576  -0.576  -0.572  -0.571  -0.564
 -0.546  -0.545  -0.537  -0.536  -0.524  -0.522  -0.517  -0.516
 -0.504  -0.502  -0.498  -0.493  -0.486  -0.480  -0.477  -0.475
 -0.469  -0.468  -0.466  -0.464  -0.458  -0.455  -0.452  -0.446
 -0.444  -0.440  -0.439  -0.437  -0.436  -0.432  -0.430  -0.428
 -0.424  -0.423  -0.420  -0.418  -0.417  -0.416  -0.413  -0.411
 -0.408  -0.408  -0.404  -0.403  -0.399  -0.397  -0.395  -0.393
 -0.391  -0.391  -0.389  -0.387  -0.383  -0.383  -0.381  -0.377
 -0.376  -0.374  -0.373  -0.370  -0.365  -0.361  -0.359  -0.358
 -0.356  -0.352  -0.345  -0.344  -0.342  -0.337  -0.336  -0.333
 -0.332  -0.331  -0.330  -0.330  -0.327  -0.326  -0.321  -0.320
 -0.314  -0.309  -0.306  -0.304  -0.302  -0.301  -0.298  -0.296
 -0.295  -0.293  -0.290  -0.287  -0.286  -0.285  -0.282  -0.276
 -0.272  -0.268  -0.263  -0.261  -0.256  -0.249  -0.247  -0.245
 -0.241  -0.239  -0.229  -0.223  -0.189  -0.187

          Ground-State Mulliken Net Atomic Charges

     Atom                 Charge (a.u.)
  ----------------------------------------
      1 C                     0.269435
      2 C                    -0.103526
      3 N                    -0.480356
      4 C                    -0.109359
      5 C                     0.047697
      6 C                     0.060764
      7 C                    -0.016887
      8 C                     0.063453
      9 C                     0.248257
     10 N                    -0.534906
     11 N                    -0.576996
     12 C                     0.225869
     13 C                     0.331094
     14 S                     0.646605
     15 N                    -0.580260
     16 C                    -0.231839
     17 S                     0.371074
     18 C                    -0.100033
     19 C                    -0.212229
     20 S                     0.291375
     21 C                     0.112822
     22 C                     0.069308
     23 C                    -0.295395
     24 C                    -0.092951
     25 N                    -0.425053
     26 S                     0.279701
     27 C                     0.130299
     28 C                    -0.317278
     29 C                    -0.233474
     30 H                     0.097256
     31 H                     0.082227
     32 H                     0.136911
     33 H                     0.113418
     34 H                     0.128107
     35 H                     0.113945
     36 H                     0.105469
     37 H                     0.132686
     38 H                     0.111951
     39 C                    -0.167037
     40 H                     0.100772
     41 H                     0.118402
     42 H                     0.093528
     43 C                    -0.187571
     44 H                     0.098618
     45 C                    -0.184871
     46 H                     0.091674
     47 H                     0.094870
     48 H                     0.089796
     49 C                    -0.176811
     50 H                     0.089645
     51 C                    -0.321994
     52 H                     0.093217
     53 H                     0.105860
     54 H                     0.103305
     55 H                     0.099379
     56 C                     0.289882
     57 C                    -0.120732
     58 N                    -0.500030
     59 C                    -0.036813
     60 C                     0.042057
     61 C                     0.065090
     62 C                     0.046059
     63 C                     0.058011
     64 C                     0.195338
     65 N                    -0.488022
     66 N                    -0.557873
     67 C                     0.254897
     68 C                     0.255772
     69 S                     0.631522
     70 N                    -0.592365
     71 C                    -0.240468
     72 S                     0.337072
     73 C                    -0.111285
     74 C                    -0.215287
     75 S                     0.328577
     76 C                     0.154144
     77 C                     0.057359
     78 C                    -0.315130
     79 C                    -0.098866
     80 N                    -0.415353
     81 S                     0.275396
     82 C                     0.107676
     83 C                    -0.302043
     84 C                    -0.236340
     85 H                     0.080542
     86 H                     0.122906
     87 H                     0.100212
     88 H                     0.104718
     89 H                     0.129524
     90 H                     0.088073
     91 H                     0.114738
     92 H                     0.139470
     93 H                     0.118501
     94 C                    -0.188812
     95 H                     0.102745
     96 H                     0.106330
     97 H                     0.098634
     98 C                    -0.191017
     99 H                     0.091962
    100 C                    -0.172238
    101 H                     0.091743
    102 H                     0.092833
    103 H                     0.099003
    104 C                    -0.177049
    105 H                     0.099373
    106 C                    -0.328452
    107 H                     0.092956
    108 H                     0.100388
    109 H                     0.106629
    110 H                     0.108083
  ----------------------------------------
  Sum of atomic charges =     0.000000

                    Cartesian Multipole Moments
 -----------------------------------------------------------------
    Charge (ESU x 10^10)
                 0.0000
    Dipole Moment (Debye)
         X      -0.8497      Y      -0.4952      Z      -1.2631
       Tot       1.6008
    Quadrupole Moments (Debye-Ang)
        XX    -408.6424     XY      14.4956     YY    -389.8425
        XZ       6.0785     YZ       4.9835     ZZ    -452.6455

 Total job time:  116.89s(wall), 1250.85s(cpu)
        *  Thank you very much for using Q-Chem.  Have a nice day.  *
