 Q-Chem 4.4, Q-Chem, Inc., Pleasanton, CA (2016)
 Q-Chem 4.4.2 for Intel X86 Linux

User input:
--------------------------------------------------------------
$comment
SP
$end

$rem
MEM_STATIC 5000
MEM_TOTAL 20000
JOBTYPE SP
EXCHANGE B3LYP
BASIS 6-31g(d,p)
$end

$molecule
0 1
C         -12.081000      7.156000     -3.163000
C         -12.047000      6.767000     -1.792000
N         -10.964000      7.049000     -3.965000
C         -10.938000      6.102000     -1.302000
C          -9.868000      6.473000     -3.505000
C          -9.820000      5.880000     -2.197000
C          -8.698000      5.034000     -1.770000
C          -8.906000      3.863000     -0.964000
C          -7.365000      5.212000     -2.182000
N          -7.961000      2.999000     -0.618000
N          -6.962000      6.320000     -2.807000
C          -6.375000      4.274000     -1.938000
C          -6.625000      3.173000     -1.101000
S          -5.333000      6.058000     -3.172000
N          -5.155000      4.554000     -2.509000
C          -5.588000      2.126000     -0.801000
S          -4.048000      1.864000     -1.609000
C          -5.774000      1.229000      0.189000
C          -3.694000      0.513000     -0.543000
S          -6.998000      1.194000      1.450000
C          -4.685000      0.407000      0.418000
C          -2.446000     -0.201000     -0.582000
C          -6.062000     -0.116000      2.289000
C          -4.742000     -0.209000      1.742000
N          -2.337000     -1.320000      0.114000
S          -1.074000      0.250000     -1.599000
C          -1.085000     -1.891000     -0.035000
C          -0.243000     -1.134000     -0.902000
C         -13.349000      7.587000     -3.957000
H         -12.988000      6.905000     -1.268000
H         -11.095000      5.676000     -0.315000
H          -9.038000      6.548000     -4.206000
H          -9.901000      3.648000     -0.577000
H          -6.464000     -0.556000      3.192000
H          -3.939000     -0.828000      2.126000
H          -0.782000     -2.803000      0.462000
H           0.765000     -1.378000     -1.212000
H         -13.526000      8.655000     -3.777000
C         -14.571000      6.678000     -3.701000
H         -12.927000      7.530000     -4.967000
H         -15.461000      7.105000     -4.180000
H         -14.772000      6.838000     -2.635000
C         -14.310000      5.193000     -4.115000
H         -13.888000      5.067000     -5.120000
C         -15.617000      4.333000     -4.077000
H         -13.671000      4.711000     -3.366000
H         -16.313000      5.072000     -4.493000
H         -15.989000      4.151000     -3.061000
C         -15.471000      2.944000     -4.819000
H         -15.195000      3.205000     -5.848000
C         -16.774000      2.243000     -4.897000
H         -14.671000      2.353000     -4.356000
H         -16.647000      1.614000     -5.787000
H         -17.602000      2.926000     -5.126000
H         -16.969000      1.731000     -3.947000
C         -10.681000      9.504000     -0.146000
C          -9.752000     10.215000     -0.925000
N         -10.291000      8.507000      0.643000
C          -8.416000      9.732000     -0.884000
C          -9.013000      8.162000      0.731000
C          -7.946000      8.677000     -0.044000
C          -6.493000      8.272000     -0.059000
C          -5.486000      9.047000     -0.800000
C          -5.982000      7.068000      0.493000
N          -4.221000      8.691000     -0.830000
N          -6.772000      6.207000      1.159000
C          -4.609000      6.681000      0.390000
C          -3.711000      7.574000     -0.251000
S          -5.753000      5.006000      1.669000
N          -4.305000      5.553000      1.090000
C          -2.301000      7.446000     -0.214000
S          -1.174000      8.794000      0.044000
C          -1.595000      6.299000     -0.370000
C           0.267000      7.760000     -0.225000
S          -2.141000      4.686000     -0.842000
C          -0.203000      6.476000     -0.468000
C           1.613000      8.213000     -0.343000
C          -0.506000      4.265000     -1.008000
C           0.447000      5.240000     -0.737000
N           1.922000      9.362000      0.202000
S           2.948000      7.191000     -0.953000
C           3.271000      9.630000     -0.086000
C           3.984000      8.562000     -0.673000
C         -12.139000      9.930000     -0.071000
H         -10.062000     11.078000     -1.507000
H          -7.761000     10.257000     -1.574000
H          -8.769000      7.311000      1.365000
H          -5.675000      9.950000     -1.378000
H          -0.368000      3.247000     -1.349000
H           1.499000      5.028000     -0.885000
H           3.692000     10.600000      0.140000
H           5.009000      8.530000     -1.017000
H         -12.110000     10.958000      0.312000
C         -13.114000      9.107000      0.806000
H         -12.536000     10.003000     -1.091000
H         -12.557000      8.821000      1.706000
H         -13.347000      8.191000      0.250000
C         -14.473000      9.895000      1.065000
H         -14.283000     10.901000      1.459000
C         -15.477000      9.036000      1.870000
H         -14.965000     10.119000      0.110000
H         -15.116000      8.787000      2.875000
H         -15.504000      8.100000      1.298000
C         -16.789000      9.676000      1.798000
H         -16.892000     10.571000      2.423000
C         -17.947000      8.834000      2.275000
H         -17.035000      9.994000      0.777000
H         -17.982000      7.789000      1.943000
H         -18.784000      9.345000      1.783000
H         -18.020000      8.903000      3.368000
$end

--------------------------------------------------------------

             Standard Nuclear Orientation (Angstroms)
    I     Atom           X                Y                Z
 ----------------------------------------------------------------
    1      C      -5.9562691718    -0.4460426346     2.0410023069
    2      C      -5.7655803364    -0.2199364122     0.6465017711
    3      N      -4.8927276482    -0.4379034874     2.9191567249
    4      C      -4.5286316505     0.1955190990     0.1887238048
    5      C      -3.6858969021    -0.1042718312     2.4986314960
    6      C      -3.4503581173     0.3263695134     1.1481180702
    7      C      -2.1735143845     0.9239794552     0.7364611261
    8      C      -2.1227343776     2.0182096645    -0.1931746305
    9      C      -0.9212838290     0.5745613201     1.2732502864
   10      N      -1.0220568637     2.6715004143    -0.5409636565
   11      N      -0.7576474196    -0.5098308630     2.0335230788
   12      C       0.2296958390     1.3040971073     1.0232436083
   13      C       0.2291471544     2.3332557592     0.0661113457
   14      S       0.8645629325    -0.4818974434     2.5059247064
   15      N       1.3428082838     0.8906840900     1.7181618499
   16      C       1.4488218532     3.1557746256    -0.2460334023
   17      S       2.9544535876     3.2467286994     0.6583495016
   18      C       1.4859942837     3.9577106980    -1.3299253463
   19      C       3.6057275911     4.3963252292    -0.4997277803
   20      S       0.3719815066     4.0563319592    -2.6859383916
   21      C       2.7132501256     4.5588437636    -1.5456291616
   22      C       4.9529824061     4.8946068150    -0.4259651563
   23      C       1.5732355558     5.0945017695    -3.5664548051
   24      C       2.8506205793     5.0276056185    -2.9229717777
   25      N       5.2990946267     5.8975750654    -1.2150906340
   26      S       6.1566371444     4.3371645533     0.7404598931
   27      C       6.6183557991     6.2670246543    -1.0181059642
   28      C       7.2581478308     5.4806880435    -0.0150890697
   29      C      -7.3290448061    -0.5727202306     2.7645082465
   30      H      -6.6797747925    -0.2571612520     0.0617250549
   31      H      -4.5444979168     0.5313029747    -0.8443741821
   32      H      -2.9292076563    -0.2382149421     3.2702574600
   33      H      -3.0380382820     2.3508685315    -0.6805921526
   34      H       1.3134861014     5.4935900697    -4.5379854272
   35      H       3.7719287481     5.4600139365    -3.2966565440
   36      H       7.1063011390     7.0567943784    -1.5737453510
   37      H       8.2705575922     5.5874153967     0.3527910020
   38      H      -7.6756130003    -1.6100660438     2.6741913012
   39      C      -8.3561937356     0.4919694115     2.3212227372
   40      H      -6.9708387401    -0.4762499845     3.7959222787
   41      H      -9.3360879649     0.2724859509     2.7633814303
   42      H      -8.5113137032     0.2519672043     1.2625945040
   43      C      -7.8704327587     1.9497546893     2.6104291641
   44      H      -7.4999817549     2.1133162989     3.6302324067
   45      C      -9.0039059277     3.0042215656     2.3810142959
   46      H      -7.1099749657     2.2350946448     1.8742694974
   47      H      -9.8428836233     2.4400248728     2.8069151272
   48      H      -9.2713031851     3.1331273598     1.3247728449
   49      C      -8.6692980494     4.4226642907     2.9952282679
   50      H      -8.5107453073     4.2335737309     4.0639863267
   51      C      -9.8339223597     5.3332699467     2.8965289523
   52      H      -7.7505824565     4.8195002882     2.5456363967
   53      H      -9.6589656971     6.0260096282     3.7292185103
   54      H     -10.7806672454     4.8253366063     3.1205643137
   55      H      -9.8747133825     5.7636607782     1.8886753793
   56      C      -4.7876208688    -3.3078117368    -0.6085130733
   57      C      -4.0485999365    -4.0730109021     0.3100299573
   58      N      -4.1803056719    -2.4809350501    -1.4547241561
   59      C      -2.6494973272    -3.8244119460     0.3340392833
   60      C      -2.8589484769    -2.3631708947    -1.4688580532
   61      C      -1.9501916872    -2.9594427843    -0.5616866631
   62      C      -0.4532544968    -2.8004926473    -0.4648729143
   63      C       0.3538675181    -3.6454408607     0.4286434927
   64      C       0.2931519837    -1.7648042408    -1.0858945648
   65      N       1.6565940572    -3.5018736091     0.5294056308
   66      N      -0.2907830731    -0.8631672593    -1.8952446763
   67      C       1.7025753598    -1.6006993860    -0.9067232955
   68      C       2.3887670444    -2.5542478042    -0.1100926497
   69      S       0.9515974437     0.0903639429    -2.4320229340
   70      N       2.2421467982    -0.6215124971    -1.6844479894
   71      C       3.7990236477    -2.6654066026    -0.0417330536
   72      S       4.6907696625    -4.2008395910    -0.0738513229
   73      C       4.6807028462    -1.6405037814     0.0612086672
   74      C       6.2678511132    -3.3956194302     0.2132594409
   75      S       4.3916548812     0.0822040981     0.3284124019
   76      C       6.0117242458    -2.0329373224     0.2913715441
   77      C       7.5046848929    -4.0488302889     0.4860354949
   78      C       6.0602984186     0.2432923519     0.5886071742
   79      C       6.8463125053    -0.8992245718     0.4931507212
   80      N       7.6457444241    -5.2855743749     0.0819646170
   81      S       8.9531108668    -3.2006781436     1.1036997536
   82      C       8.9063048790    -5.7393846029     0.5057719040
   83      C       9.7528975042    -4.7460460647     1.0444011601
   84      C      -6.2891558501    -3.4930693141    -0.7632300077
   85      H      -4.5405480600    -4.8043188433     0.9446705950
   86      H      -2.1417871356    -4.3717980092     1.1235637346
   87      H      -2.4305191114    -1.6384127098    -2.1594135196
   88      H      -0.0258094387    -4.4363552003     1.0732471818
   89      H       6.3493232285     1.2556272929     0.8401854452
   90      H       7.9070837820    -0.8488004094     0.7070986177
   91      H       9.1673865156    -6.7843315399     0.4101723342
   92      H      10.7431676411    -4.8462251007     1.4678562543
   93      H      -6.4130234696    -4.5473379019    -1.0415976740
   94      C      -7.0476021865    -2.6211880543    -1.7936014086
   95      H      -6.7589546769    -3.3878380057     0.2224440937
   96      H      -6.3916589433    -2.5309263909    -2.6674642662
   97      H      -7.1549326395    -1.6241778405    -1.3498314148
   98      C      -8.5022683900    -3.1977032712    -2.0876803792
   99      H      -8.4633861939    -4.2581652293    -2.3656742822
  100      C      -9.2877294981    -2.2778928472    -3.0525231807
  101      H      -9.0872377466    -3.2319105799    -1.1598303310
  102      H      -8.8239010749    -2.2030256009    -4.0432830352
  103      H      -9.1902047212    -1.2935134872    -2.5776598389
  104      C     -10.6923965774    -2.6809667493    -3.0286521586
  105      H     -10.9071191506    -3.6094945539    -3.5708599903
  106      C     -11.6536958162    -1.7166260474    -3.6793500794
  107      H     -11.0561731175    -2.8406954031    -2.0057961639
  108      H     -11.5294375540    -0.6502685420    -3.4537053252
  109      H     -12.5968638812    -2.0257744665    -3.2117869755
  110      H     -11.6655299108    -1.8914868958    -4.7628733315
 ----------------------------------------------------------------

   10   -5663.4915175098      4.46E-06 Convergence criterion met
 Total energy in the final basis set = -5663.4915175098

                    Orbital Energies (a.u.)
 --------------------------------------------------------------

 Alpha MOs
 -- Occupied --
-88.988 -88.987 -88.934 -88.930 -88.923 -88.917 -88.909 -88.907
-14.391 -14.388 -14.384 -14.383 -14.355 -14.348 -14.343 -14.341
-14.324 -14.323 -10.274 -10.267 -10.264 -10.258 -10.257 -10.256
-10.254 -10.251 -10.244 -10.243 -10.242 -10.242 -10.240 -10.239
-10.237 -10.233 -10.233 -10.231 -10.231 -10.230 -10.229 -10.228
-10.225 -10.225 -10.223 -10.223 -10.223 -10.220 -10.219 -10.219
-10.213 -10.212 -10.212 -10.209 -10.207 -10.199 -10.199 -10.197
-10.190 -10.186 -10.186 -10.180 -10.180 -10.179 -10.178 -10.175
-10.174 -10.172 -10.169 -10.168  -8.043  -8.041  -7.995  -7.989
 -7.984  -7.976  -7.968  -7.967  -6.008  -6.006  -6.002  -6.001
 -6.001  -5.999  -5.959  -5.956  -5.954  -5.952  -5.950  -5.948
 -5.946  -5.944  -5.940  -5.940  -5.936  -5.932  -5.932  -5.932
 -5.929  -5.928  -5.924  -5.923  -1.030  -1.027  -0.968  -0.961
 -0.956  -0.944  -0.942  -0.931  -0.916  -0.913  -0.903  -0.900
 -0.845  -0.839  -0.823  -0.823  -0.810  -0.809  -0.809  -0.807
 -0.803  -0.802  -0.794  -0.791  -0.788  -0.784  -0.767  -0.763
 -0.747  -0.747  -0.740  -0.735  -0.728  -0.719  -0.713  -0.710
 -0.694  -0.691  -0.675  -0.673  -0.653  -0.652  -0.642  -0.638
 -0.633  -0.633  -0.625  -0.615  -0.612  -0.603  -0.598  -0.596
 -0.595  -0.590  -0.584  -0.578  -0.577  -0.575  -0.572  -0.572
 -0.550  -0.545  -0.538  -0.535  -0.524  -0.518  -0.512  -0.509
 -0.506  -0.501  -0.500  -0.499  -0.485  -0.481  -0.477  -0.476
 -0.475  -0.474  -0.469  -0.462  -0.457  -0.454  -0.454  -0.449
 -0.447  -0.443  -0.440  -0.439  -0.437  -0.433  -0.431  -0.431
 -0.429  -0.428  -0.426  -0.425  -0.421  -0.418  -0.417  -0.415
 -0.413  -0.407  -0.404  -0.404  -0.401  -0.398  -0.396  -0.394
 -0.392  -0.392  -0.391  -0.390  -0.385  -0.385  -0.384  -0.384
 -0.377  -0.375  -0.372  -0.370  -0.368  -0.364  -0.363  -0.357
 -0.354  -0.350  -0.348  -0.348  -0.346  -0.342  -0.341  -0.338
 -0.336  -0.334  -0.332  -0.330  -0.327  -0.325  -0.325  -0.321
 -0.317  -0.316  -0.315  -0.311  -0.305  -0.300  -0.298  -0.297
 -0.296  -0.295  -0.292  -0.291  -0.288  -0.286  -0.281  -0.279
 -0.273  -0.269  -0.267  -0.263  -0.250  -0.249  -0.247  -0.243
 -0.242  -0.241  -0.226  -0.224  -0.192  -0.189

          Ground-State Mulliken Net Atomic Charges

     Atom                 Charge (a.u.)
  ----------------------------------------
      1 C                     0.252078
      2 C                    -0.105733
      3 N                    -0.478983
      4 C                    -0.060632
      5 C                     0.108275
      6 C                    -0.005166
      7 C                     0.056275
      8 C                     0.080872
      9 C                     0.240051
     10 N                    -0.510391
     11 N                    -0.576362
     12 C                     0.212742
     13 C                     0.239261
     14 S                     0.606679
     15 N                    -0.573379
     16 C                    -0.192579
     17 S                     0.328398
     18 C                    -0.125552
     19 C                    -0.235529
     20 S                     0.274725
     21 C                     0.175574
     22 C                     0.065320
     23 C                    -0.300785
     24 C                    -0.073401
     25 N                    -0.434161
     26 S                     0.258982
     27 C                     0.120595
     28 C                    -0.310659
     29 C                    -0.242021
     30 H                     0.090266
     31 H                     0.113956
     32 H                     0.120924
     33 H                     0.110955
     34 H                     0.133892
     35 H                     0.124427
     36 H                     0.123800
     37 H                     0.132964
     38 H                     0.104358
     39 C                    -0.190362
     40 H                     0.128853
     41 H                     0.095234
     42 H                     0.094736
     43 C                    -0.171532
     44 H                     0.103107
     45 C                    -0.184543
     46 H                     0.100668
     47 H                     0.086119
     48 H                     0.084965
     49 C                    -0.178869
     50 H                     0.092844
     51 C                    -0.305992
     52 H                     0.099010
     53 H                     0.099690
     54 H                     0.105243
     55 H                     0.103844
     56 C                     0.295994
     57 C                    -0.112636
     58 N                    -0.495977
     59 C                    -0.099210
     60 C                     0.061935
     61 C                     0.072599
     62 C                     0.052935
     63 C                     0.059820
     64 C                     0.214171
     65 N                    -0.506616
     66 N                    -0.568501
     67 C                     0.224535
     68 C                     0.235771
     69 S                     0.628060
     70 N                    -0.556209
     71 C                    -0.202446
     72 S                     0.328642
     73 C                    -0.123456
     74 C                    -0.208663
     75 S                     0.341695
     76 C                     0.120065
     77 C                     0.063837
     78 C                    -0.314833
     79 C                    -0.089770
     80 N                    -0.429845
     81 S                     0.267335
     82 C                     0.110435
     83 C                    -0.314736
     84 C                    -0.251175
     85 H                     0.094588
     86 H                     0.091536
     87 H                     0.121402
     88 H                     0.116875
     89 H                     0.133220
     90 H                     0.116138
     91 H                     0.114154
     92 H                     0.134834
     93 H                     0.113518
     94 C                    -0.176938
     95 H                     0.107385
     96 H                     0.120784
     97 H                     0.088525
     98 C                    -0.188413
     99 H                     0.090055
    100 C                    -0.153096
    101 H                     0.086663
    102 H                     0.095349
    103 H                     0.088412
    104 C                    -0.175929
    105 H                     0.095076
    106 C                    -0.315683
    107 H                     0.088807
    108 H                     0.097324
    109 H                     0.096397
    110 H                     0.102208
  ----------------------------------------
  Sum of atomic charges =     0.000000

                    Cartesian Multipole Moments
 -----------------------------------------------------------------
    Charge (ESU x 10^10)
                 0.0000
    Dipole Moment (Debye)
         X       1.0881      Y       1.3799      Z       0.5610
       Tot       1.8447
    Quadrupole Moments (Debye-Ang)
        XX    -380.1186     XY      24.5720     YY    -442.6680
        XZ      10.5178     YZ     -10.1742     ZZ    -446.0292

 Total job time:  117.07s(wall), 1254.78s(cpu)
        *  Thank you very much for using Q-Chem.  Have a nice day.  *
