 Q-Chem 4.4, Q-Chem, Inc., Pleasanton, CA (2016)
 Q-Chem 4.4.2 for Intel X86 Linux

User input:
--------------------------------------------------------------
$comment
SP
$end

$rem
MEM_STATIC 5000
MEM_TOTAL 20000
JOBTYPE SP
EXCHANGE B3LYP
BASIS 6-31g(d,p)
$end

$molecule
0 1
C           4.464000     13.625000     -0.728000
C           5.531000     14.471000     -0.757000
N           4.503000     12.507000     -1.471000
C           6.666000     14.200000     -1.511000
C           5.657000     12.203000     -2.164000
C           6.766000     13.002000     -2.324000
C           7.915000     12.550000     -3.140000
C           8.656000     13.553000     -3.763000
C           8.297000     11.199000     -3.407000
N           9.721000     13.297000     -4.599000
N           7.843000     10.111000     -2.802000
C           9.326000     10.971000     -4.282000
C          10.078000     12.015000     -4.868000
S           8.674000      8.875000     -3.353000
N           9.632000      9.607000     -4.466000
C          11.193000     11.807000     -5.809000
S          11.849000     10.268000     -6.390000
C          12.025000     12.787000     -6.294000
C          13.223000     11.013000     -7.208000
S          11.891000     14.536000     -6.131000
C          13.095000     12.369000     -7.080000
C          14.443000     10.355000     -7.501000
C          13.581000     14.616000     -6.811000
C          13.983000     13.435000     -7.324000
N          14.639000      9.251000     -6.806000
S          15.719000     10.837000     -8.560000
C          15.929000      8.800000     -7.010000
C          16.588000      9.469000     -7.999000
C           3.227000     13.790000      0.146000
H           5.518000     15.390000     -0.178000
H           7.478000     14.918000     -1.452000
H           5.522000     11.272000     -2.712000
H           8.302000     14.582000     -3.802000
H          14.055000     15.570000     -7.000000
H          14.937000     13.363000     -7.833000
H          16.360000      7.993000     -6.433000
H          17.530000      9.149000     -8.426000
H           3.283000     13.033000      0.938000
C           1.837000     13.800000     -0.549000
H           3.345000     14.778000      0.610000
H           1.922000     13.202000     -1.465000
H           1.549000     14.802000     -0.891000
C           0.711000     13.211000      0.300000
H           0.973000     12.305000      0.860000
C          -0.580000     12.886000     -0.531000
H           0.486000     13.993000      1.035000
H          -0.438000     12.114000     -1.298000
H          -0.817000     13.716000     -1.208000
C          -1.879000     12.639000      0.223000
H          -1.722000     12.069000      1.148000
C          -2.999000     12.040000     -0.678000
H          -2.207000     13.597000      0.643000
H          -3.485000     12.787000     -1.317000
H          -3.866000     11.739000     -0.077000
H          -2.734000     11.137000     -1.241000
C         -10.681000      9.504000     -0.146000
C          -9.752000     10.215000     -0.925000
N         -10.291000      8.507000      0.643000
C          -8.416000      9.732000     -0.884000
C          -9.013000      8.162000      0.731000
C          -7.946000      8.677000     -0.044000
C          -6.493000      8.272000     -0.059000
C          -5.486000      9.047000     -0.800000
C          -5.982000      7.068000      0.493000
N          -4.221000      8.691000     -0.830000
N          -6.772000      6.207000      1.159000
C          -4.609000      6.681000      0.390000
C          -3.711000      7.574000     -0.251000
S          -5.753000      5.006000      1.669000
N          -4.305000      5.553000      1.090000
C          -2.301000      7.446000     -0.214000
S          -1.174000      8.794000      0.044000
C          -1.595000      6.299000     -0.370000
C           0.267000      7.760000     -0.225000
S          -2.141000      4.686000     -0.842000
C          -0.203000      6.476000     -0.468000
C           1.613000      8.213000     -0.343000
C          -0.506000      4.265000     -1.008000
C           0.447000      5.240000     -0.737000
N           1.922000      9.362000      0.202000
S           2.948000      7.191000     -0.953000
C           3.271000      9.630000     -0.086000
C           3.984000      8.562000     -0.673000
C         -12.139000      9.930000     -0.071000
H         -10.062000     11.078000     -1.507000
H          -7.761000     10.257000     -1.574000
H          -8.769000      7.311000      1.365000
H          -5.675000      9.950000     -1.378000
H          -0.368000      3.247000     -1.349000
H           1.499000      5.028000     -0.885000
H           3.692000     10.600000      0.140000
H           5.009000      8.530000     -1.017000
H         -12.110000     10.958000      0.312000
C         -13.114000      9.107000      0.806000
H         -12.536000     10.003000     -1.091000
H         -12.557000      8.821000      1.706000
H         -13.347000      8.191000      0.250000
C         -14.473000      9.895000      1.065000
H         -14.283000     10.901000      1.459000
C         -15.477000      9.036000      1.870000
H         -14.965000     10.119000      0.110000
H         -15.116000      8.787000      2.875000
H         -15.504000      8.100000      1.298000
C         -16.789000      9.676000      1.798000
H         -16.892000     10.571000      2.423000
C         -17.947000      8.834000      2.275000
H         -17.035000      9.994000      0.777000
H         -17.982000      7.789000      1.943000
H         -18.784000      9.345000      1.783000
H         -18.020000      8.903000      3.368000
$end

--------------------------------------------------------------

             Standard Nuclear Orientation (Angstroms)
    I     Atom           X                Y                Z
 ----------------------------------------------------------------
    1      C      -2.7298882696    -3.3105777134     2.1695004672
    2      C      -3.8651445161    -3.9944492271     2.4834415568
    3      N      -2.8275261348    -2.2046707922     1.4139008848
    4      C      -5.1205443541    -3.5690843758     2.0672469027
    5      C      -4.0790509473    -1.7434212034     1.0599016468
    6      C      -5.2852000209    -2.3758036742     1.2578380575
    7      C      -6.5470479972    -1.7698173882     0.7773369587
    8      C      -7.5640027568    -2.6607816446     0.4379187642
    9      C      -6.8025168717    -0.3801231556     0.5630950532
   10      N      -8.7784524440    -2.2609984172    -0.0758344142
   11      N      -6.0514513358     0.6361043290     0.9619274245
   12      C      -7.9977513616    -0.0135443756     0.0031981768
   13      C      -9.0201320968    -0.9431973582    -0.2956646080
   14      S      -6.8296030668     1.9743002087     0.6075693132
   15      N      -8.1556473556     1.3787523673    -0.1535392946
   16      C     -10.3185193876    -0.5845710584    -0.8936174659
   17      S     -10.8981322738     1.0280370055    -1.3407887243
   18      C     -11.3792650464    -1.4385607758    -1.0762898770
   19      C     -12.5363246937     0.4818790073    -1.7014298707
   20      S     -11.4427499600    -3.1872594316    -0.8724549510
   21      C     -12.5622073784    -0.8773433412    -1.5486270767
   22      C     -13.6881956493     1.3061777153    -1.6708040368
   23      C     -13.2511304441    -3.0287697244    -1.0443300143
   24      C     -13.6188978294    -1.8064204159    -1.4803842748
   25      N     -13.5258989582     2.4324982321    -1.0034818675
   26      S     -15.2665964150     1.0042158002    -2.3028254167
   27      C     -14.7468245666     3.0627530390    -0.8577542551
   28      C     -15.7452461368     2.4875309023    -1.5872999092
   29      C      -1.3290690862    -3.6447516876     2.6667965263
   30      H      -3.8120353668    -4.9010241730     3.0794887745
   31      H      -5.9713896390    -4.1622698785     2.3874691074
   32      H      -3.9812714697    -0.8460157115     0.4513027996
   33      H      -7.3788442019    -3.7302932510     0.3510900055
   34      H     -13.8841647990    -3.9061404092    -1.0454194667
   35      H     -14.6595838180    -1.6020329559    -1.7030486848
   36      H     -14.8814519139     3.9280304479    -0.2228452198
   37      H     -16.7174940276     2.9362684358    -1.7468670268
   38      H      -1.0533016832    -2.8811656895     3.4045890194
   39      C      -0.2102803212    -3.8602994206     1.6098784244
   40      H      -1.4424456153    -4.6016903389     3.1928936468
   41      H      -0.4714909647    -3.2637495651     0.7268256120
   42      H      -0.1706285014    -4.8960564353     1.2499518489
   43      C       1.1803384266    -3.4325760804     2.0776713729
   44      H       1.2146081146    -2.4937878617     2.6438712218
   45      C       2.2117847874    -3.3034802349     0.9019504589
   46      H       1.4977101411    -4.2328194944     2.7568323797
   47      H       1.9626571338    -2.5253352306     0.1692412639
   48      H       2.1306817243    -4.1644146355     0.2269599027
   49      C       3.6930125363    -3.2398510564     1.2466846802
   50      H       3.8855969942    -2.6456998497     2.1494967150
   51      C       4.5793925130    -2.8155787209     0.0386592159
   52      H       3.9942504027    -4.2316356498     1.6035699115
   53      H       4.7566231593    -3.6298999713    -0.6740793050
   54      H       5.6144034980    -2.6375946549     0.3557789617
   55      H       4.2896146315    -1.8884462396    -0.4703173469
   56      C      12.3630831577    -1.4071063194    -1.7383634183
   57      C      11.1628085306    -1.9833341697    -2.1885914539
   58      N      12.3536764757    -0.3579905765    -0.9211133511
   59      C       9.9725689390    -1.3128050482    -1.7966904312
   60      C      11.2131734310     0.1680151872    -0.4937683596
   61      C       9.9097007750    -0.1943694000    -0.9108719989
   62      C       8.5818905745     0.4153545761    -0.5358843400
   63      C       7.3097945790    -0.2126730556    -0.9246105571
   64      C       8.4180614799     1.6847956805     0.0782168815
   65      N       6.1494084119     0.3213891280    -0.6145419722
   66      N       9.4745295352     2.4285408791     0.4519752632
   67      C       7.1385675549     2.2644817205     0.3472269017
   68      C       5.9824432327     1.5048138430     0.0293979108
   69      S       8.8163619979     3.7677689868     1.1690147100
   70      N       7.2030886358     3.4301325300     1.0485793240
   71      C       4.6727185674     1.8346645609     0.4556288401
   72      S       3.4944517617     0.6649977297     1.0859968584
   73      C       4.1139193602     3.0700105739     0.4489449659
   74      C       2.1907635112     1.8933659051     1.1834985064
   75      S       4.7158020430     4.5837739635    -0.2358372158
   76      C       2.7413479204     3.0943591926     0.7556236043
   77      C       0.8186918529     1.6378145141     1.4715294961
   78      C       3.1743656670     5.2342929828     0.0449133931
   79      C       2.2154646279     4.4088006000     0.6205401151
   80      N       0.5254218327     0.5496976048     2.1368875102
   81      S      -0.4834722301     2.8362865902     1.2129905562
   82      C      -0.8729711062     0.4762661291     2.2538234192
   83      C      -1.5722427489     1.6309444159     1.8399403152
   84      C      13.7099286368    -2.0378433172    -2.0562361835
   85      H      11.1736223962    -2.8866567161    -2.7914881594
   86      H       9.0828810598    -1.7436782086    -2.2478597978
   87      H      11.2782000351     1.0503884315     0.1409615030
   88      H       7.2015355568    -1.1381346966    -1.4876511730
   89      H       3.0840819754     6.2587533408    -0.2926941159
   90      H       1.2039144830     4.7687591350     0.7645823225
   91      H      -1.3393462651    -0.4211939628     2.6362846520
   92      H      -2.6385761333     1.8073055377     1.7973390482
   93      H      13.6524229036    -3.0478284101    -1.6308690447
   94      C      14.9970251642    -1.3566079615    -1.5305139002
   95      H      13.7852871867    -2.1754883861    -3.1419216463
   96      H      14.7644810237    -0.9861383766    -0.5251679352
   97      H      15.1834568238    -0.4882121687    -2.1736414019
   98      C      16.2534229488    -2.3298264497    -1.6265158848
   99      H      16.0493038371    -3.2947854174    -1.1463476029
  100      C      17.5523457781    -1.6177244092    -1.1797137279
  101      H      16.4169985380    -2.6300369734    -2.6692918281
  102      H      17.5307214725    -1.3112186271    -0.1271294819
  103      H      17.5414890658    -0.7000257475    -1.7811456012
  104      C      18.6896715715    -2.4404128131    -1.5869014362
  105      H      18.8445575203    -3.3358150021    -0.9732857073
  106      C      20.0386911780    -1.7699558900    -1.4969535872
  107      H      18.5882694300    -2.7987806821    -2.6190695795
  108      H      20.1187629069    -0.7435975022    -1.8759667506
  109      H      20.6229060269    -2.4000531032    -2.1791738686
  110      H      20.4108137150    -1.8398644694    -0.4667222501
 ----------------------------------------------------------------

   10   -5663.5173921014      5.50E-06 Convergence criterion met
 Total energy in the final basis set = -5663.5173921014

                    Orbital Energies (a.u.)
 --------------------------------------------------------------

 Alpha MOs
 -- Occupied --
-88.995 -88.988 -88.935 -88.919 -88.919 -88.917 -88.910 -88.906
-14.393 -14.390 -14.385 -14.384 -14.353 -14.344 -14.343 -14.338
-14.328 -14.322 -10.268 -10.268 -10.261 -10.261 -10.259 -10.258
-10.258 -10.257 -10.244 -10.243 -10.239 -10.238 -10.236 -10.234
-10.231 -10.230 -10.230 -10.229 -10.228 -10.227 -10.227 -10.225
-10.225 -10.223 -10.223 -10.222 -10.222 -10.220 -10.219 -10.219
-10.219 -10.213 -10.207 -10.205 -10.201 -10.199 -10.199 -10.197
-10.187 -10.183 -10.176 -10.174 -10.174 -10.169 -10.169 -10.168
-10.167 -10.164 -10.162 -10.159  -8.051  -8.043  -7.997  -7.980
 -7.978  -7.975  -7.971  -7.965  -6.016  -6.011  -6.009  -6.008
 -6.002  -6.001  -5.961  -5.957  -5.954  -5.944  -5.943  -5.940
 -5.940  -5.939  -5.937  -5.936  -5.936  -5.935  -5.932  -5.932
 -5.930  -5.928  -5.926  -5.921  -1.050  -1.030  -0.978  -0.958
 -0.956  -0.954  -0.941  -0.936  -0.915  -0.913  -0.905  -0.903
 -0.846  -0.842  -0.838  -0.823  -0.817  -0.813  -0.810  -0.805
 -0.803  -0.798  -0.794  -0.791  -0.786  -0.782  -0.768  -0.762
 -0.750  -0.745  -0.742  -0.739  -0.722  -0.719  -0.711  -0.709
 -0.694  -0.693  -0.678  -0.673  -0.657  -0.651  -0.646  -0.641
 -0.640  -0.632  -0.624  -0.624  -0.615  -0.602  -0.601  -0.596
 -0.593  -0.590  -0.580  -0.575  -0.574  -0.573  -0.569  -0.563
 -0.548  -0.544  -0.544  -0.537  -0.528  -0.524  -0.522  -0.511
 -0.510  -0.505  -0.503  -0.498  -0.487  -0.479  -0.476  -0.475
 -0.474  -0.473  -0.467  -0.466  -0.456  -0.452  -0.451  -0.451
 -0.448  -0.446  -0.438  -0.435  -0.434  -0.434  -0.429  -0.429
 -0.428  -0.426  -0.424  -0.423  -0.418  -0.417  -0.415  -0.411
 -0.410  -0.405  -0.402  -0.402  -0.399  -0.397  -0.396  -0.395
 -0.393  -0.392  -0.391  -0.389  -0.386  -0.384  -0.383  -0.379
 -0.377  -0.371  -0.369  -0.367  -0.362  -0.360  -0.358  -0.354
 -0.353  -0.351  -0.348  -0.347  -0.346  -0.342  -0.336  -0.335
 -0.333  -0.332  -0.331  -0.330  -0.327  -0.322  -0.321  -0.316
 -0.316  -0.312  -0.307  -0.305  -0.301  -0.300  -0.299  -0.297
 -0.297  -0.292  -0.292  -0.290  -0.286  -0.284  -0.284  -0.277
 -0.277  -0.275  -0.267  -0.263  -0.254  -0.252  -0.247  -0.243
 -0.241  -0.239  -0.236  -0.226  -0.199  -0.188

          Ground-State Mulliken Net Atomic Charges

     Atom                 Charge (a.u.)
  ----------------------------------------
      1 C                     0.275915
      2 C                    -0.113857
      3 N                    -0.494260
      4 C                    -0.088465
      5 C                     0.046233
      6 C                     0.060995
      7 C                     0.049381
      8 C                     0.048896
      9 C                     0.259944
     10 N                    -0.543000
     11 N                    -0.547122
     12 C                     0.154129
     13 C                     0.330370
     14 S                     0.617337
     15 N                    -0.545610
     16 C                    -0.225234
     17 S                     0.357646
     18 C                    -0.117307
     19 C                    -0.230848
     20 S                     0.268020
     21 C                     0.144785
     22 C                     0.057808
     23 C                    -0.304742
     24 C                    -0.067609
     25 N                    -0.419958
     26 S                     0.283437
     27 C                     0.119722
     28 C                    -0.303567
     29 C                    -0.222343
     30 H                     0.087806
     31 H                     0.099087
     32 H                     0.109118
     33 H                     0.124773
     34 H                     0.121534
     35 H                     0.107778
     36 H                     0.118896
     37 H                     0.133275
     38 H                     0.123006
     39 C                    -0.183496
     40 H                     0.091812
     41 H                     0.122518
     42 H                     0.093555
     43 C                    -0.188810
     44 H                     0.117090
     45 C                    -0.173008
     46 H                     0.084816
     47 H                     0.101653
     48 H                     0.079702
     49 C                    -0.179151
     50 H                     0.096523
     51 C                    -0.334767
     52 H                     0.084564
     53 H                     0.091258
     54 H                     0.090535
     55 H                     0.134849
     56 C                     0.285466
     57 C                    -0.115467
     58 N                    -0.489154
     59 C                    -0.104780
     60 C                     0.067603
     61 C                     0.062460
     62 C                     0.036622
     63 C                     0.068375
     64 C                     0.228667
     65 N                    -0.510455
     66 N                    -0.555665
     67 C                     0.219404
     68 C                     0.249423
     69 S                     0.604591
     70 N                    -0.552604
     71 C                    -0.205178
     72 S                     0.347263
     73 C                    -0.106932
     74 C                    -0.217067
     75 S                     0.290647
     76 C                     0.124035
     77 C                     0.067088
     78 C                    -0.297295
     79 C                    -0.087983
     80 N                    -0.438749
     81 S                     0.260792
     82 C                     0.127465
     83 C                    -0.323905
     84 C                    -0.249038
     85 H                     0.093559
     86 H                     0.089485
     87 H                     0.123327
     88 H                     0.118648
     89 H                     0.129128
     90 H                     0.119674
     91 H                     0.126315
     92 H                     0.140403
     93 H                     0.112668
     94 C                    -0.174108
     95 H                     0.106540
     96 H                     0.120081
     97 H                     0.097674
     98 C                    -0.188459
     99 H                     0.087438
    100 C                    -0.153992
    101 H                     0.087390
    102 H                     0.094287
    103 H                     0.092815
    104 C                    -0.175130
    105 H                     0.093372
    106 C                    -0.315463
    107 H                     0.088669
    108 H                     0.097933
    109 H                     0.095340
    110 H                     0.101168
  ----------------------------------------
  Sum of atomic charges =     0.000000

                    Cartesian Multipole Moments
 -----------------------------------------------------------------
    Charge (ESU x 10^10)
                 0.0000
    Dipole Moment (Debye)
         X      -5.3369      Y      -0.0102      Z      -0.7937
       Tot       5.3956
    Quadrupole Moments (Debye-Ang)
        XX    -367.0563     XY     -13.5684     YY    -410.1963
        XZ     -10.0120     YZ      -1.3540     ZZ    -445.8339

 Total job time:  95.47s(wall), 1035.09s(cpu)
        *  Thank you very much for using Q-Chem.  Have a nice day.  *
