 Q-Chem 4.4, Q-Chem, Inc., Pleasanton, CA (2016)
 Q-Chem 4.4.2 for Intel X86 Linux

User input:
--------------------------------------------------------------
$comment
SP
$end

$rem
MEM_STATIC 5000
MEM_TOTAL 20000
JOBTYPE SP
EXCHANGE B3LYP
BASIS 6-31g(d,p)
$end

$molecule
0 1
C          -9.958000     13.496000      2.552000
C          -8.916000     13.165000      1.634000
N          -9.902000     14.549000      3.391000
C          -7.762000     14.032000      1.534000
C          -8.761000     15.339000      3.293000
C          -7.650000     15.085000      2.471000
C          -6.359000     15.857000      2.490000
C          -5.576000     15.996000      1.346000
C          -5.939000     16.549000      3.654000
N          -4.497000     16.804000      1.298000
N          -6.488000     16.413000      4.870000
C          -4.909000     17.486000      3.618000
C          -4.158000     17.574000      2.358000
S          -5.822000     17.550000      5.766000
N          -4.735000     18.203000      4.722000
C          -3.102000     18.549000      2.291000
S          -2.920000     20.105000      3.127000
C          -1.948000     18.355000      1.610000
C          -1.255000     20.370000      2.654000
S          -1.491000     16.948000      0.656000
C          -0.897000     19.269000      1.909000
C          -0.498000     21.533000      2.846000
C           0.120000     17.683000      0.581000
C           0.285000     18.910000      1.240000
N          -1.116000     22.600000      3.330000
S           1.258000     21.807000      2.703000
C          -0.278000     23.621000      3.674000
C           1.039000     23.392000      3.265000
C         -11.145000     12.686000      2.662000
H          -9.023000     12.254000      1.053000
H          -6.866000     13.692000      1.022000
H          -8.681000     16.166000      3.997000
H          -5.754000     15.616000      0.341000
H           0.914000     17.136000      0.088000
H           1.255000     19.349000      1.445000
H          -0.696000     24.550000      4.038000
H           1.812000     24.133000      3.112000
H         -12.029000     13.257000      2.353000
C         -11.285000     12.042000      4.118000
H         -11.145000     11.880000      1.918000
H         -11.234000     12.840000      4.868000
H         -10.425000     11.395000      4.332000
C         -12.458000     11.110000      4.318000
H         -12.533000     10.422000      3.467000
C         -13.762000     11.893000      4.343000
H         -12.265000     10.590000      5.265000
H         -14.033000     12.200000      3.326000
H         -13.627000     12.834000      4.889000
C         -14.991000     11.151000      5.037000
H         -15.280000     10.243000      4.493000
C         -16.203000     12.045000      5.198000
H         -14.529000     10.883000      5.996000
H         -16.458000     12.419000      4.199000
H         -15.961000     12.964000      5.747000
H         -17.093000     11.479000      5.500000
C         -10.681000      9.504000     -0.146000
C          -9.752000     10.215000     -0.925000
N         -10.291000      8.507000      0.643000
C          -8.416000      9.732000     -0.884000
C          -9.013000      8.162000      0.731000
C          -7.946000      8.677000     -0.044000
C          -6.493000      8.272000     -0.059000
C          -5.486000      9.047000     -0.800000
C          -5.982000      7.068000      0.493000
N          -4.221000      8.691000     -0.830000
N          -6.772000      6.207000      1.159000
C          -4.609000      6.681000      0.390000
C          -3.711000      7.574000     -0.251000
S          -5.753000      5.006000      1.669000
N          -4.305000      5.553000      1.090000
C          -2.301000      7.446000     -0.214000
S          -1.174000      8.794000      0.044000
C          -1.595000      6.299000     -0.370000
C           0.267000      7.760000     -0.225000
S          -2.141000      4.686000     -0.842000
C          -0.203000      6.476000     -0.468000
C           1.613000      8.213000     -0.343000
C          -0.506000      4.265000     -1.008000
C           0.447000      5.240000     -0.737000
N           1.922000      9.362000      0.202000
S           2.948000      7.191000     -0.953000
C           3.271000      9.630000     -0.086000
C           3.984000      8.562000     -0.673000
C         -12.139000      9.930000     -0.071000
H         -10.062000     11.078000     -1.507000
H          -7.761000     10.257000     -1.574000
H          -8.769000      7.311000      1.365000
H          -5.675000      9.950000     -1.378000
H          -0.368000      3.247000     -1.349000
H           1.499000      5.028000     -0.885000
H           3.692000     10.600000      0.140000
H           5.009000      8.530000     -1.017000
H         -12.110000     10.958000      0.312000
C         -13.114000      9.107000      0.806000
H         -12.536000     10.003000     -1.091000
H         -12.557000      8.821000      1.706000
H         -13.347000      8.191000      0.250000
C         -14.473000      9.895000      1.065000
H         -14.283000     10.901000      1.459000
C         -15.477000      9.036000      1.870000
H         -14.965000     10.119000      0.110000
H         -15.116000      8.787000      2.875000
H         -15.504000      8.100000      1.298000
C         -16.789000      9.676000      1.798000
H         -16.892000     10.571000      2.423000
C         -17.947000      8.834000      2.275000
H         -17.035000      9.994000      0.777000
H         -17.982000      7.789000      1.943000
H         -18.784000      9.345000      1.783000
H         -18.020000      8.903000      3.368000
$end

--------------------------------------------------------------

             Standard Nuclear Orientation (Angstroms)
    I     Atom           X                Y                Z
 ----------------------------------------------------------------
    1      C       2.4992464826     4.1218846329     0.1229386136
    2      C       2.0188648716     2.9283393525     0.7415921284
    3      N       1.6919715826     5.0502084372    -0.4269596954
    4      C       0.5919580360     2.7183985782     0.8567735240
    5      C       0.3273551412     4.7970163354    -0.3305194168
    6      C      -0.2607869376     3.6381462097     0.2039241506
    7      C      -1.7274923033     3.3068110365     0.1589978421
    8      C      -2.3323944532     2.5406036663     1.1530630588
    9      C      -2.5662366752     3.8411063225    -0.8515447973
   10      N      -3.6670290482     2.3559098532     1.2166845419
   11      N      -2.1364170664     4.4740382913    -1.9530007549
   12      C      -3.9547622857     3.7807488098    -0.7592485369
   13      C      -4.4955718372     2.9669578623     0.3383006979
   14      S      -3.4459434340     5.0683881239    -2.6393169859
   15      N      -4.6296064613     4.4789894690    -1.6649120067
   16      C      -5.9275054484     2.9059961380     0.4651856906
   17      S      -7.1719335926     4.0923435761     0.0211875488
   18      C      -6.5951535487     1.8008607249     0.8726592883
   19      C      -8.5357836968     3.0198423560     0.2574776800
   20      S      -5.9098885988     0.2539030384     1.3584039382
   21      C      -7.9999118729     1.8095103215     0.6360642020
   22      C      -9.8936532511     3.3635324277     0.2340382254
   23      C      -7.5780584474    -0.3444664210     1.3401188022
   24      C      -8.5749044197     0.5765990215     0.9866056370
   25      N     -10.2047814423     4.6476699946     0.1399161879
   26      S     -11.3461761281     2.3335683559     0.1423196214
   27      C     -11.5312322815     4.8850886423    -0.0772969718
   28      C     -12.3064822015     3.7272038330     0.0345123744
   29      C       3.9103202128     4.3957418289     0.0178569114
   30      H       2.7523742015     2.2070742523     1.0889704786
   31      H       0.2030320082     1.7360647291     1.1103810040
   32      H      -0.3350008425     5.5152875786    -0.8114726080
   33      H      -1.8915100783     2.1041601261     2.0481870749
   34      H      -7.7516741739    -1.3941997363     1.5416418688
   35      H      -9.5894704671     0.2876315922     0.7360072325
   36      H     -11.8861537326     5.9058945075    -0.1247010762
   37      H     -13.3682166439     3.6705580523     0.2333344791
   38      H       4.1729280602     5.2856519628     0.6027287539
   39      C       4.3815150399     4.4791849055    -1.5070315067
   40      H       4.5023266530     3.6264881260     0.5286886991
   41      H       3.7577915736     5.2106297599    -2.0341581163
   42      H       4.1933532052     3.5254716913    -2.0159826134
   43      C       5.8618681546     4.6869639140    -1.7304941196
   44      H       6.4323614878     4.0168570155    -1.0757696727
   45      C       6.2658465547     6.1009583526    -1.3411983708
   46      H       6.0322919824     4.4821964726    -2.7951461820
   47      H       6.3019655432     6.1919415877    -0.2492292917
   48      H       5.4931870930     6.8136436645    -1.6524844169
   49      C       7.6311525520     6.6214585844    -1.9796809799
   50      H       8.4924882039     6.0349050868    -1.6362033399
   51      C       7.8853140190     8.0897306710    -1.7082403264
   52      H       7.4328503883     6.4122095179    -3.0388505037
   53      H       7.8628450989     8.2210306094    -0.6195909458
   54      H       7.0501821059     8.7167064593    -2.0458526019
   55      H       8.9038397872     8.3879750517    -1.9862970636
   56      C       5.9050990220     1.0864899519     1.8330686117
   57      C       4.7825734405     0.7204823924     2.5955499461
   58      N       6.2690636278     0.3778932770     0.7681505313
   59      C       4.1456927892    -0.4907719464     2.2119981727
   60      C       5.5768536403    -0.6865458830     0.3836149569
   61      C       4.4890853811    -1.2774291572     1.0706056195
   62      C       3.7166563804    -2.5302436696     0.7400481565
   63      C       2.4917181303    -2.8935639922     1.4689374669
   64      C       4.1473795233    -3.5308889692    -0.1702416647
   65      N       1.8224248664    -3.9915948771     1.1964751712
   66      N       5.2781749758    -3.3935284024    -0.8853715266
   67      C       3.4249063791    -4.7438419830    -0.3988997982
   68      C       2.1926527002    -4.9242513029     0.2820828361
   69      S       5.3411994113    -4.7443593833    -1.8404346563
   70      N       3.9457406784    -5.5105221375    -1.3967641043
   71      C       1.2581445861    -5.9439706659    -0.0224167618
   72      S      -0.4981836082    -5.7021282290    -0.1254726189
   73      C       1.5441091792    -7.2448792309    -0.2758771274
   74      C      -0.8163594936    -7.4509603573    -0.3670265321
   75      S       3.0729457956    -8.1193045784    -0.1319746876
   76      C       0.4195676635    -8.0842464806    -0.3731704960
   77      C      -2.0964975945    -8.0771314857    -0.3692982370
   78      C       2.1873711721    -9.5493049458    -0.3530595931
   79      C       0.8129938712    -9.4417260801    -0.5313537948
   80      N      -3.1381828318    -7.3392264833    -0.6575603987
   81      S      -2.3290376720    -9.8473797594    -0.2646313289
   82      C      -4.2846490046    -8.1437435394    -0.5438211313
   83      C      -4.0364219711    -9.5224801454    -0.3676657702
   84      C       6.6636795081     2.3746644097     2.1124021262
   85      H       4.4424796637     1.3451476871     3.4163559479
   86      H       3.3450193089    -0.7741482521     2.8897664571
   87      H       5.9538526079    -1.2435412011    -0.4727266771
   88      H       2.0363074573    -2.3213762238     2.2754213642
   89      H       2.8050678070   -10.4367365512    -0.3024136345
   90      H       0.2047515651   -10.3337905809    -0.6197518921
   91      H      -5.2682001061    -7.6969329341    -0.5907733796
   92      H      -4.7391064521   -10.3314414999    -0.2200139942
   93      H       5.9160955990     3.1695765828     1.9960108208
   94      C       7.8916361886     2.7239150866     1.2364858314
   95      H       6.9521671145     2.3893967859     3.1706534470
   96      H       7.6399158912     2.4214377596     0.2131631264
   97      H       8.7185409331     2.0909018097     1.5800025481
   98      C       8.3202156445     4.2470931730     1.4129912630
   99      H       7.4706654553     4.9225280017     1.2535413704
  100      C       9.5975584808     4.5699579737     0.6017726741
  101      H       8.5703083105     4.4475696968     2.4625282188
  102      H       9.4569839799     4.4548014189    -0.4795805418
  103      H      10.2899032777     3.7807680686     0.9209074038
  104      C      10.1106005337     5.8631410038     1.0496493344
  105      H       9.5379079052     6.7269492377     0.6917143007
  106      C      11.5042326273     6.2039452803     0.5815691780
  107      H      10.1212543663     5.9437255492     2.1439407156
  108      H      12.2652908280     5.4164813040     0.6461052249
  109      H      11.7833075877     6.9675301797     1.3183250860
  110      H      11.4546074179     6.6220495323    -0.4320703895
 ----------------------------------------------------------------

    9   -5663.5065563800      9.72E-06 Convergence criterion met
 Total energy in the final basis set = -5663.5065563800

                    Orbital Energies (a.u.)
 --------------------------------------------------------------

 Alpha MOs
 -- Occupied --
-88.993 -88.986 -88.927 -88.925 -88.923 -88.917 -88.915 -88.911
-14.395 -14.390 -14.385 -14.382 -14.350 -14.349 -14.346 -14.336
-14.331 -14.329 -10.269 -10.265 -10.264 -10.264 -10.264 -10.262
-10.253 -10.252 -10.250 -10.242 -10.240 -10.239 -10.237 -10.235
-10.235 -10.235 -10.234 -10.233 -10.230 -10.230 -10.229 -10.228
-10.226 -10.226 -10.226 -10.226 -10.225 -10.225 -10.225 -10.220
-10.215 -10.214 -10.213 -10.207 -10.206 -10.206 -10.203 -10.201
-10.188 -10.181 -10.179 -10.179 -10.176 -10.174 -10.172 -10.171
-10.170 -10.170 -10.169 -10.166  -8.048  -8.042  -7.988  -7.987
 -7.981  -7.977  -7.976  -7.971  -6.013  -6.007  -6.007  -6.006
 -6.001  -6.000  -5.952  -5.951  -5.949  -5.947  -5.946  -5.945
 -5.944  -5.942  -5.941  -5.941  -5.938  -5.937  -5.937  -5.935
 -5.933  -5.933  -5.932  -5.927  -1.049  -1.035  -0.966  -0.966
 -0.962  -0.955  -0.948  -0.928  -0.919  -0.916  -0.910  -0.909
 -0.852  -0.841  -0.834  -0.829  -0.816  -0.812  -0.809  -0.807
 -0.806  -0.803  -0.798  -0.795  -0.792  -0.777  -0.768  -0.764
 -0.751  -0.748  -0.746  -0.743  -0.725  -0.716  -0.716  -0.709
 -0.699  -0.693  -0.679  -0.675  -0.657  -0.655  -0.648  -0.646
 -0.638  -0.636  -0.631  -0.626  -0.608  -0.608  -0.601  -0.596
 -0.596  -0.587  -0.582  -0.581  -0.578  -0.575  -0.572  -0.559
 -0.551  -0.547  -0.543  -0.541  -0.531  -0.524  -0.518  -0.518
 -0.512  -0.507  -0.505  -0.498  -0.485  -0.483  -0.482  -0.480
 -0.479  -0.473  -0.472  -0.467  -0.463  -0.461  -0.457  -0.455
 -0.450  -0.443  -0.438  -0.438  -0.436  -0.434  -0.432  -0.432
 -0.429  -0.429  -0.425  -0.423  -0.421  -0.419  -0.417  -0.412
 -0.411  -0.409  -0.407  -0.404  -0.401  -0.399  -0.398  -0.397
 -0.395  -0.395  -0.394  -0.393  -0.389  -0.386  -0.384  -0.382
 -0.377  -0.374  -0.373  -0.370  -0.368  -0.366  -0.364  -0.360
 -0.358  -0.352  -0.350  -0.349  -0.346  -0.344  -0.341  -0.339
 -0.336  -0.335  -0.334  -0.331  -0.328  -0.326  -0.326  -0.321
 -0.318  -0.314  -0.313  -0.307  -0.306  -0.305  -0.303  -0.298
 -0.297  -0.295  -0.293  -0.291  -0.291  -0.285  -0.282  -0.274
 -0.273  -0.272  -0.270  -0.263  -0.255  -0.254  -0.251  -0.248
 -0.247  -0.239  -0.232  -0.228  -0.195  -0.192

          Ground-State Mulliken Net Atomic Charges

     Atom                 Charge (a.u.)
  ----------------------------------------
      1 C                     0.299092
      2 C                    -0.134668
      3 N                    -0.491061
      4 C                    -0.102809
      5 C                     0.070283
      6 C                     0.066330
      7 C                     0.055447
      8 C                     0.041105
      9 C                     0.204470
     10 N                    -0.515431
     11 N                    -0.533168
     12 C                     0.213971
     13 C                     0.270586
     14 S                     0.600843
     15 N                    -0.558328
     16 C                    -0.197204
     17 S                     0.350121
     18 C                    -0.116514
     19 C                    -0.207300
     20 S                     0.287677
     21 C                     0.128089
     22 C                     0.058181
     23 C                    -0.299899
     24 C                    -0.088450
     25 N                    -0.425072
     26 S                     0.271304
     27 C                     0.113170
     28 C                    -0.315786
     29 C                    -0.245840
     30 H                     0.096527
     31 H                     0.105318
     32 H                     0.112508
     33 H                     0.120532
     34 H                     0.123860
     35 H                     0.112702
     36 H                     0.117127
     37 H                     0.140264
     38 H                     0.119380
     39 C                    -0.180324
     40 H                     0.099978
     41 H                     0.123675
     42 H                     0.089520
     43 C                    -0.187881
     44 H                     0.107566
     45 C                    -0.175747
     46 H                     0.089363
     47 H                     0.088722
     48 H                     0.090718
     49 C                    -0.182932
     50 H                     0.097725
     51 C                    -0.318917
     52 H                     0.091983
     53 H                     0.101726
     54 H                     0.104671
     55 H                     0.100725
     56 C                     0.285913
     57 C                    -0.124461
     58 N                    -0.486844
     59 C                    -0.107552
     60 C                     0.068674
     61 C                     0.065017
     62 C                     0.036920
     63 C                     0.067338
     64 C                     0.229190
     65 N                    -0.505593
     66 N                    -0.557837
     67 C                     0.221286
     68 C                     0.246195
     69 S                     0.608668
     70 N                    -0.549860
     71 C                    -0.196937
     72 S                     0.334005
     73 C                    -0.104740
     74 C                    -0.209178
     75 S                     0.293746
     76 C                     0.123669
     77 C                     0.062805
     78 C                    -0.296378
     79 C                    -0.089025
     80 N                    -0.429308
     81 S                     0.271359
     82 C                     0.110734
     83 C                    -0.313298
     84 C                    -0.250008
     85 H                     0.098589
     86 H                     0.091702
     87 H                     0.125754
     88 H                     0.116195
     89 H                     0.131078
     90 H                     0.119928
     91 H                     0.115344
     92 H                     0.136971
     93 H                     0.110074
     94 C                    -0.180203
     95 H                     0.107937
     96 H                     0.125315
     97 H                     0.098512
     98 C                    -0.193709
     99 H                     0.095180
    100 C                    -0.157255
    101 H                     0.087552
    102 H                     0.100029
    103 H                     0.091469
    104 C                    -0.183682
    105 H                     0.102031
    106 C                    -0.316824
    107 H                     0.088864
    108 H                     0.098196
    109 H                     0.096470
    110 H                     0.102058
  ----------------------------------------
  Sum of atomic charges =     0.000000

                    Cartesian Multipole Moments
 -----------------------------------------------------------------
    Charge (ESU x 10^10)
                 0.0000
    Dipole Moment (Debye)
         X      -0.8642      Y      -4.7207      Z       1.2772
       Tot       4.9662
    Quadrupole Moments (Debye-Ang)
        XX    -399.3989     XY       4.3449     YY    -409.2060
        XZ       9.1189     YZ       1.9487     ZZ    -446.9075

 Total job time:  88.46s(wall), 978.98s(cpu)
        *  Thank you very much for using Q-Chem.  Have a nice day.  *
