 Q-Chem 4.4, Q-Chem, Inc., Pleasanton, CA (2016)
 Q-Chem 4.4.2 for Intel X86 Linux

User input:
--------------------------------------------------------------
$comment
SP
$end

$rem
MEM_STATIC 5000
MEM_TOTAL 20000
JOBTYPE SP
EXCHANGE B3LYP
BASIS 6-31g(d,p)
$end

$molecule
0 1
C           8.111000     18.327000     -7.223000
C           6.856000     17.759000     -7.459000
N           9.054000     17.483000     -6.760000
C           6.429000     16.479000     -7.091000
C           8.666000     16.236000     -6.415000
C           7.338000     15.606000     -6.576000
C           6.970000     14.180000     -6.374000
C           5.933000     13.913000     -5.547000
C           7.667000     13.161000     -6.971000
N           5.461000     12.693000     -5.328000
N           8.703000     13.276000     -7.830000
C           7.147000     11.816000     -6.867000
C           6.000000     11.634000     -5.971000
S           8.966000     11.698000     -8.381000
N           7.826000     10.901000     -7.625000
C           5.338000     10.314000     -5.740000
S           5.965000      8.753000     -6.273000
C           4.227000     10.074000     -4.926000
C           4.618000      7.831000     -5.506000
S           3.105000     11.272000     -4.325000
C           3.828000      8.714000     -4.870000
C           4.384000      6.489000     -5.478000
C           1.973000      9.895000     -3.995000
C           2.547000      8.632000     -4.221000
N           5.002000      5.858000     -6.411000
S           3.572000      5.504000     -4.246000
C           4.982000      4.496000     -6.197000
C           4.221000      4.070000     -5.182000
C           8.588000     19.778000     -7.482000
H           6.059000     18.416000     -7.795000
H           5.376000     16.255000     -7.237000
H           9.496000     15.677000     -5.985000
H           5.312000     14.687000     -5.098000
H           1.066000     10.091000     -3.439000
H           2.071000      7.682000     -4.003000
H           5.597000      3.869000     -6.829000
H           4.117000      3.103000     -4.709000
H           9.254000     19.902000     -8.345000
C           9.151000     20.386000     -6.143000
H           7.640000     20.284000     -7.704000
H          10.171000     20.025000     -5.964000
H           8.485000     20.145000     -5.304000
C           9.200000     21.944000     -6.140000
H           8.169000     22.313000     -6.204000
C           9.999000     22.634000     -7.277000
H           9.427000     22.388000     -5.163000
H           9.781000     22.060000     -8.186000
H          11.077000     22.496000     -7.129000
C           9.588000     24.145000     -7.367000
H          10.033000     24.534000     -8.291000
C           9.915000     25.048000     -6.085000
H           8.511000     24.285000     -7.524000
H          10.984000     25.236000     -5.923000
H           9.562000     24.518000     -5.192000
H           9.466000     26.049000     -6.075000
C         -10.681000      9.504000     -0.146000
C          -9.752000     10.215000     -0.925000
N         -10.291000      8.507000      0.643000
C          -8.416000      9.732000     -0.884000
C          -9.013000      8.162000      0.731000
C          -7.946000      8.677000     -0.044000
C          -6.493000      8.272000     -0.059000
C          -5.486000      9.047000     -0.800000
C          -5.982000      7.068000      0.493000
N          -4.221000      8.691000     -0.830000
N          -6.772000      6.207000      1.159000
C          -4.609000      6.681000      0.390000
C          -3.711000      7.574000     -0.251000
S          -5.753000      5.006000      1.669000
N          -4.305000      5.553000      1.090000
C          -2.301000      7.446000     -0.214000
S          -1.174000      8.794000      0.044000
C          -1.595000      6.299000     -0.370000
C           0.267000      7.760000     -0.225000
S          -2.141000      4.686000     -0.842000
C          -0.203000      6.476000     -0.468000
C           1.613000      8.213000     -0.343000
C          -0.506000      4.265000     -1.008000
C           0.447000      5.240000     -0.737000
N           1.922000      9.362000      0.202000
S           2.948000      7.191000     -0.953000
C           3.271000      9.630000     -0.086000
C           3.984000      8.562000     -0.673000
C         -12.139000      9.930000     -0.071000
H         -10.062000     11.078000     -1.507000
H          -7.761000     10.257000     -1.574000
H          -8.769000      7.311000      1.365000
H          -5.675000      9.950000     -1.378000
H          -0.368000      3.247000     -1.349000
H           1.499000      5.028000     -0.885000
H           3.692000     10.600000      0.140000
H           5.009000      8.530000     -1.017000
H         -12.110000     10.958000      0.312000
C         -13.114000      9.107000      0.806000
H         -12.536000     10.003000     -1.091000
H         -12.557000      8.821000      1.706000
H         -13.347000      8.191000      0.250000
C         -14.473000      9.895000      1.065000
H         -14.283000     10.901000      1.459000
C         -15.477000      9.036000      1.870000
H         -14.965000     10.119000      0.110000
H         -15.116000      8.787000      2.875000
H         -15.504000      8.100000      1.298000
C         -16.789000      9.676000      1.798000
H         -16.892000     10.571000      2.423000
C         -17.947000      8.834000      2.275000
H         -17.035000      9.994000      0.777000
H         -17.982000      7.789000      1.943000
H         -18.784000      9.345000      1.783000
H         -18.020000      8.903000      3.368000
$end

--------------------------------------------------------------

             Standard Nuclear Orientation (Angstroms)
    I     Atom           X                Y                Z
 ----------------------------------------------------------------
    1      C     -11.0087080016    -3.9769615334    -0.3874814882
    2      C      -9.8059710060    -3.9808325454    -1.0993478624
    3      N     -11.3078389345    -2.8243718585     0.2434002171
    4      C      -8.8069724088    -3.0024521022    -1.0689092158
    5      C     -10.3631052750    -1.8592992205     0.2696893021
    6      C      -9.0473113789    -1.8385954917    -0.4045975647
    7      C      -8.0996851996    -0.7001102605    -0.5293373042
    8      C      -6.8214716974    -0.9045508818    -0.1356860943
    9      C      -8.4993706280     0.5268341066    -0.9934903806
   10      N      -5.8612555555     0.0030703406    -0.2512442074
   11      N      -9.7280170763     0.8694986199    -1.4377998857
   12      C      -7.4900869181     1.5299418029    -1.2491509815
   13      C      -6.1277942373     1.2011779897    -0.8159974209
   14      S      -9.5228333560     2.4223399788    -2.0776728066
   15      N      -7.9730924211     2.6576281654    -1.8556649152
   16      C      -4.9629288342     2.1201264832    -0.9966275925
   17      S      -5.0661292823     3.8091783994    -1.4970197307
   18      C      -3.6374012071     1.8604837314    -0.6359627188
   19      C      -3.2878173506     4.0714269334    -1.3500014326
   20      S      -2.9473964190     0.2934164508    -0.2845619068
   21      C      -2.7417104573     2.9285521619    -0.8984601635
   22      C      -2.5488827191     5.1925029732    -1.5816652477
   23      C      -1.3268860925     1.0662490660    -0.5358168182
   24      C      -1.3936440813     2.4572023533    -0.7269014158
   25      N      -3.1550155008     6.0396834562    -2.3336375081
   26      S      -1.0326371673     5.7274162640    -0.8318251328
   27      C      -2.5229645600     7.2651010587    -2.3234734609
   28      C      -1.3484074161     7.3171368428    -1.6843101071
   29      C     -12.0788042412    -5.0916834937    -0.2765761715
   30      H      -9.5111441429    -4.9047398563    -1.5884556232
   31      H      -7.8791956002    -3.2360592795    -1.5836507820
   32      H     -10.6911114113    -1.0122524992     0.8706924855
   33      H      -6.4419634478    -1.8746558730     0.1824141955
   34      H      -0.4385022210     0.5000504902    -0.2900643620
   35      H      -0.5372120419     3.1178684254    -0.8084152369
   36      H      -3.0208053503     8.1022660070    -2.7947349561
   37      H      -0.7091667793     8.1442047763    -1.4068861686
   38      H     -12.9992816727    -4.9115946679    -0.8457776412
   39      C     -12.3183542858    -5.4318437326     1.2421274823
   40      H     -11.5557878892    -5.9433850548    -0.7294363555
   41      H     -12.9750052087    -4.6810874022     1.6981280280
   42      H     -11.3601495285    -5.5052259495     1.7731799216
   43      C     -12.9751069148    -6.8269233800     1.4706067194
   44      H     -12.2713022775    -7.5914997725     1.1194657612
   45      C     -14.3297700375    -7.1008672287     0.7655446003
   46      H     -12.9944862586    -7.1521896088     2.5179940983
   47      H     -14.2423310209    -6.6548938979    -0.2328256750
   48      H     -15.1347843250    -6.5279704100     1.2417517316
   49      C     -14.6117638239    -8.6437015886     0.7487029152
   50      H     -15.4717814178    -8.7955957576     0.0850615213
   51      C     -14.7886002498    -9.3494309699     2.1757757651
   52      H     -13.8115964720    -9.2178446240     0.2646884694
   53      H     -15.7099716711    -9.0767098013     2.7059143019
   54      H     -13.9617227877    -9.0304982298     2.8219286650
   55      H     -14.8010146742   -10.4464847600     2.1712080831
   56      C      10.9102612153    -3.9268781994    -1.1779257501
   57      C       9.5649239510    -4.1717291497    -1.5027621052
   58      N      11.2559488460    -2.8717045877    -0.4459840099
   59      C       8.6398744547    -3.1758577776    -1.0875637916
   60      C      10.3421553415    -2.0262245688     0.0124895105
   61      C       8.9589841063    -2.0354603418    -0.2893234025
   62      C       7.8840832169    -1.0606548374     0.1227461384
   63      C       6.4609613230    -1.3317356906    -0.1321935531
   64      C       8.1247371945     0.2371372114     0.6454912589
   65      N       5.5204439387    -0.4796783971     0.2102774945
   66      N       9.3714746581     0.6782222390     0.8905763368
   67      C       7.0790443880     1.1636904436     0.9513223599
   68      C       5.7371548530     0.7381942531     0.7696097637
   69      S       9.1660103117     2.1860835397     1.5424971145
   70      N       7.5176066468     2.3034944659     1.5540743286
   71      C       4.6076085252     1.4425001395     1.2532742256
   72      S       3.2124808081     0.6839079884     2.0482293196
   73      C       4.4082017570     2.7819786957     1.1868277176
   74      C       2.3059956893     2.2294953167     2.1344994777
   75      S       5.3401136590     4.0275321143     0.3484925291
   76      C       3.1250905166     3.2039696255     1.5794422868
   77      C       0.9454988253     2.3818695877     2.5303269208
   78      C       4.0636576625     5.0954281814     0.6775519143
   79      C       2.9679937147     4.6028537765     1.3769559241
   80      N       0.4237674912     1.4576863215     3.2960871348
   81      S       0.0023822450     3.8781124389     2.2646251217
   82      C      -0.9267030742     1.7822872859     3.5092360640
   83      C      -1.3169798425     3.0602587336     3.0531274990
   84      C      12.0024820061    -4.9238725532    -1.5327792445
   85      H       9.2783531442    -5.0752891040    -2.0329032012
   86      H       7.6317610685    -3.3676284144    -1.4448891664
   87      H      10.6983821107    -1.1620066009     0.5709899966
   88      H       6.0575823337    -2.2211899642    -0.6132034139
   89      H       4.2279843455     6.0837312522     0.2677924952
   90      H       2.1087073134     5.2371709357     1.5581205510
   91      H      -1.5861685056     1.0729236610     3.9899912953
   92      H      -2.2945157382     3.5231089267     3.0664793236
   93      H      11.7078329982    -5.8522576302    -1.0272131155
   94      C      13.4660061403    -4.5981405073    -1.1466720796
   95      H      11.9458830769    -5.1385534149    -2.6070448955
   96      H      13.4286584171    -4.1211020399    -0.1602216509
   97      H      13.8273153796    -3.8537282031    -1.8662462280
   98      C      14.3968416874    -5.8858265582    -1.2482388979
   99      H      13.9785534062    -6.7271974163    -0.6821099436
  100      C      15.8734773079    -5.5382675551    -0.9438181631
  101      H      14.3840902089    -6.2784630509    -2.2729042015
  102      H      16.0248227534    -5.1784595851     0.0808670475
  103      H      16.0626414627    -4.6894114706    -1.6128990777
  104      C      16.7050497598    -6.6662299350    -1.3589279399
  105      H      16.6610326497    -7.5330117519    -0.6888452764
  106      C      18.1883372662    -6.3928185372    -1.4095380278
  107      H      16.4233699158    -7.0404435810    -2.3512492652
  108      H      18.5129761187    -5.4523624057    -1.8717348258
  109      H      18.5191480126    -7.1981218458    -2.0772242050
  110      H      18.6125845119    -6.5046073804    -0.4034284269
 ----------------------------------------------------------------

   10   -5663.4924540587      3.95E-06 Convergence criterion met
 Total energy in the final basis set = -5663.4924540587

                    Orbital Energies (a.u.)
 --------------------------------------------------------------

 Alpha MOs
 -- Occupied --
-88.992 -88.990 -88.927 -88.926 -88.923 -88.923 -88.915 -88.911
-14.395 -14.394 -14.389 -14.383 -14.351 -14.347 -14.344 -14.337
-14.326 -14.325 -10.274 -10.268 -10.266 -10.263 -10.262 -10.262
-10.261 -10.257 -10.248 -10.244 -10.241 -10.240 -10.237 -10.236
-10.234 -10.233 -10.232 -10.231 -10.231 -10.231 -10.231 -10.230
-10.230 -10.229 -10.229 -10.229 -10.223 -10.222 -10.218 -10.216
-10.215 -10.213 -10.207 -10.207 -10.207 -10.206 -10.202 -10.194
-10.193 -10.186 -10.185 -10.183 -10.180 -10.178 -10.176 -10.176
-10.174 -10.171 -10.169 -10.166  -8.047  -8.046  -7.987  -7.986
 -7.981  -7.981  -7.977  -7.970  -6.012  -6.011  -6.006  -6.005
 -6.005  -6.003  -5.951  -5.950  -5.948  -5.947  -5.946  -5.946
 -5.944  -5.943  -5.942  -5.942  -5.941  -5.938  -5.938  -5.938
 -5.934  -5.933  -5.931  -5.926  -1.035  -1.034  -0.981  -0.965
 -0.964  -0.960  -0.944  -0.935  -0.919  -0.912  -0.908  -0.905
 -0.852  -0.839  -0.837  -0.827  -0.815  -0.813  -0.807  -0.805
 -0.803  -0.798  -0.796  -0.796  -0.788  -0.778  -0.768  -0.766
 -0.749  -0.749  -0.745  -0.736  -0.725  -0.717  -0.714  -0.708
 -0.697  -0.693  -0.681  -0.678  -0.657  -0.654  -0.647  -0.646
 -0.640  -0.636  -0.628  -0.624  -0.615  -0.606  -0.604  -0.599
 -0.596  -0.592  -0.587  -0.580  -0.577  -0.575  -0.571  -0.561
 -0.549  -0.548  -0.542  -0.539  -0.530  -0.525  -0.521  -0.516
 -0.509  -0.508  -0.503  -0.499  -0.487  -0.482  -0.480  -0.478
 -0.477  -0.471  -0.470  -0.467  -0.459  -0.454  -0.452  -0.451
 -0.449  -0.445  -0.441  -0.441  -0.436  -0.434  -0.433  -0.432
 -0.431  -0.430  -0.428  -0.422  -0.421  -0.414  -0.414  -0.411
 -0.409  -0.405  -0.404  -0.403  -0.400  -0.399  -0.397  -0.396
 -0.396  -0.396  -0.393  -0.393  -0.388  -0.386  -0.382  -0.381
 -0.378  -0.373  -0.372  -0.370  -0.365  -0.362  -0.362  -0.358
 -0.356  -0.354  -0.351  -0.350  -0.349  -0.347  -0.342  -0.339
 -0.337  -0.336  -0.335  -0.330  -0.329  -0.329  -0.323  -0.321
 -0.320  -0.314  -0.314  -0.312  -0.307  -0.304  -0.302  -0.297
 -0.296  -0.295  -0.294  -0.290  -0.289  -0.288  -0.285  -0.280
 -0.277  -0.271  -0.266  -0.265  -0.257  -0.254  -0.247  -0.246
 -0.244  -0.243  -0.236  -0.231  -0.199  -0.194

          Ground-State Mulliken Net Atomic Charges

     Atom                 Charge (a.u.)
  ----------------------------------------
      1 C                     0.260062
      2 C                    -0.131163
      3 N                    -0.462397
      4 C                    -0.063678
      5 C                     0.081081
      6 C                     0.017325
      7 C                     0.024158
      8 C                     0.064787
      9 C                     0.263031
     10 N                    -0.518808
     11 N                    -0.568127
     12 C                     0.169890
     13 C                     0.319105
     14 S                     0.610424
     15 N                    -0.528152
     16 C                    -0.216512
     17 S                     0.339625
     18 C                    -0.142136
     19 C                    -0.200474
     20 S                     0.285483
     21 C                     0.152880
     22 C                     0.050981
     23 C                    -0.311736
     24 C                    -0.072729
     25 N                    -0.428662
     26 S                     0.241789
     27 C                     0.133403
     28 C                    -0.309180
     29 C                    -0.214620
     30 H                     0.071456
     31 H                     0.101202
     32 H                     0.099874
     33 H                     0.117324
     34 H                     0.140853
     35 H                     0.115098
     36 H                     0.117158
     37 H                     0.134420
     38 H                     0.124315
     39 C                    -0.173913
     40 H                     0.096563
     41 H                     0.118685
     42 H                     0.097280
     43 C                    -0.187105
     44 H                     0.084319
     45 C                    -0.174195
     46 H                     0.090918
     47 H                     0.092353
     48 H                     0.095485
     49 C                    -0.180339
     50 H                     0.089478
     51 C                    -0.328323
     52 H                     0.097273
     53 H                     0.104272
     54 H                     0.106666
     55 H                     0.103080
     56 C                     0.286187
     57 C                    -0.115003
     58 N                    -0.488804
     59 C                    -0.104559
     60 C                     0.067962
     61 C                     0.062520
     62 C                     0.038332
     63 C                     0.066427
     64 C                     0.227955
     65 N                    -0.506011
     66 N                    -0.556073
     67 C                     0.221703
     68 C                     0.245049
     69 S                     0.606949
     70 N                    -0.552181
     71 C                    -0.196291
     72 S                     0.328919
     73 C                    -0.105533
     74 C                    -0.211310
     75 S                     0.294545
     76 C                     0.121233
     77 C                     0.056547
     78 C                    -0.296990
     79 C                    -0.089598
     80 N                    -0.432067
     81 S                     0.274761
     82 C                     0.113662
     83 C                    -0.313150
     84 C                    -0.249290
     85 H                     0.094456
     86 H                     0.089688
     87 H                     0.123746
     88 H                     0.117709
     89 H                     0.129309
     90 H                     0.118734
     91 H                     0.118618
     92 H                     0.141596
     93 H                     0.113150
     94 C                    -0.173794
     95 H                     0.107084
     96 H                     0.119938
     97 H                     0.097794
     98 C                    -0.188710
     99 H                     0.087603
    100 C                    -0.154239
    101 H                     0.087680
    102 H                     0.094407
    103 H                     0.092935
    104 C                    -0.175199
    105 H                     0.093551
    106 C                    -0.315163
    107 H                     0.088735
    108 H                     0.097871
    109 H                     0.095533
    110 H                     0.101227
  ----------------------------------------
  Sum of atomic charges =     0.000000

                    Cartesian Multipole Moments
 -----------------------------------------------------------------
    Charge (ESU x 10^10)
                 0.0000
    Dipole Moment (Debye)
         X       1.4129      Y       1.1127      Z      -1.5003
       Tot       2.3420
    Quadrupole Moments (Debye-Ang)
        XX    -472.0990     XY       4.8692     YY    -389.5226
        XZ      -9.1839     YZ       9.1073     ZZ    -453.3060

 Total job time:  93.97s(wall), 1005.80s(cpu)
        *  Thank you very much for using Q-Chem.  Have a nice day.  *
