 Q-Chem 4.4, Q-Chem, Inc., Pleasanton, CA (2016)
 Q-Chem 4.4.2 for Intel X86 Linux

User input:
--------------------------------------------------------------
$comment
SP
$end

$rem
MEM_STATIC 5000
MEM_TOTAL 20000
JOBTYPE SP
EXCHANGE B3LYP
BASIS 6-31g(d,p)
$end

$molecule
0 1
C           1.421000      6.590000      3.260000
C           0.215000      5.903000      2.952000
N           2.590000      5.956000      3.320000
C           0.218000      4.522000      2.806000
C           2.597000      4.592000      3.132000
C           1.424000      3.846000      2.875000
C           1.588000      2.417000      2.725000
C           1.895000      1.865000      1.446000
C           1.486000      1.494000      3.801000
N           2.231000      0.592000      1.235000
N           1.079000      1.865000      5.056000
C           1.963000      0.214000      3.610000
C           2.436000     -0.182000      2.333000
S           1.359000      0.519000      5.905000
N           1.932000     -0.518000      4.749000
C           3.288000     -1.368000      2.038000
S           3.372000     -2.348000      0.635000
C           4.361000     -1.607000      2.897000
C           4.929000     -3.038000      1.148000
S           4.864000     -0.832000      4.367000
C           5.314000     -2.457000      2.319000
C           5.618000     -4.090000      0.419000
C           6.395000     -1.852000      4.275000
C           6.465000     -2.577000      3.085000
N           4.845000     -4.622000     -0.498000
S           7.275000     -4.832000      0.633000
C           5.540000     -5.590000     -1.185000
C           6.880000     -5.764000     -0.775000
C           1.436000      8.057000      3.520000
H          -0.693000      6.474000      2.780000
H          -0.711000      4.043000      2.509000
H           3.560000      4.141000      3.368000
H           1.782000      2.518000      0.581000
H           7.230000     -1.742000      4.954000
H           7.352000     -3.138000      2.812000
H           4.956000     -6.009000     -1.994000
H           7.588000     -6.435000     -1.244000
H           2.252000      8.533000      2.962000
C           1.676000      8.317000      5.001000
H           0.532000      8.587000      3.196000
H           2.617000      7.836000      5.294000
H           0.801000      7.880000      5.498000
C           1.856000      9.765000      5.366000
H           2.822000     10.093000      4.963000
C           1.917000      9.824000      6.926000
H           0.963000     10.333000      5.077000
H           2.740000      9.239000      7.353000
H           1.022000      9.357000      7.355000
C           2.087000     11.250000      7.411000
H           2.903000     11.649000      6.796000
C           2.370000     11.305000      8.904000
H           1.189000     11.866000      7.276000
H           1.384000     11.400000      9.375000
H           2.820000     12.236000      9.271000
H           2.820000     10.374000      9.272000
C         -10.681000      9.504000     -0.146000
C          -9.752000     10.215000     -0.925000
N         -10.291000      8.507000      0.643000
C          -8.416000      9.732000     -0.884000
C          -9.013000      8.162000      0.731000
C          -7.946000      8.677000     -0.044000
C          -6.493000      8.272000     -0.059000
C          -5.486000      9.047000     -0.800000
C          -5.982000      7.068000      0.493000
N          -4.221000      8.691000     -0.830000
N          -6.772000      6.207000      1.159000
C          -4.609000      6.681000      0.390000
C          -3.711000      7.574000     -0.251000
S          -5.753000      5.006000      1.669000
N          -4.305000      5.553000      1.090000
C          -2.301000      7.446000     -0.214000
S          -1.174000      8.794000      0.044000
C          -1.595000      6.299000     -0.370000
C           0.267000      7.760000     -0.225000
S          -2.141000      4.686000     -0.842000
C          -0.203000      6.476000     -0.468000
C           1.613000      8.213000     -0.343000
C          -0.506000      4.265000     -1.008000
C           0.447000      5.240000     -0.737000
N           1.922000      9.362000      0.202000
S           2.948000      7.191000     -0.953000
C           3.271000      9.630000     -0.086000
C           3.984000      8.562000     -0.673000
C         -12.139000      9.930000     -0.071000
H         -10.062000     11.078000     -1.507000
H          -7.761000     10.257000     -1.574000
H          -8.769000      7.311000      1.365000
H          -5.675000      9.950000     -1.378000
H          -0.368000      3.247000     -1.349000
H           1.499000      5.028000     -0.885000
H           3.692000     10.600000      0.140000
H           5.009000      8.530000     -1.017000
H         -12.110000     10.958000      0.312000
C         -13.114000      9.107000      0.806000
H         -12.536000     10.003000     -1.091000
H         -12.557000      8.821000      1.706000
H         -13.347000      8.191000      0.250000
C         -14.473000      9.895000      1.065000
H         -14.283000     10.901000      1.459000
C         -15.477000      9.036000      1.870000
H         -14.965000     10.119000      0.110000
H         -15.116000      8.787000      2.875000
H         -15.504000      8.100000      1.298000
C         -16.789000      9.676000      1.798000
H         -16.892000     10.571000      2.423000
C         -17.947000      8.834000      2.275000
H         -17.035000      9.994000      0.777000
H         -17.982000      7.789000      1.943000
H         -18.784000      9.345000      1.783000
H         -18.020000      8.903000      3.368000
$end

--------------------------------------------------------------

             Standard Nuclear Orientation (Angstroms)
    I     Atom           X                Y                Z
 ----------------------------------------------------------------
    1      C       1.0077750598     3.3195929173     0.6303863578
    2      C       0.3877041979     2.0434871547     0.7216837237
    3      N       2.3311320071     3.4500850198     0.5686190425
    4      C       1.1642424171     0.8996373614     0.8523820187
    5      C       3.0986894093     2.3102168530     0.6549045964
    6      C       2.5423675701     1.0187007302     0.7997704503
    7      C       3.4781003105    -0.0791561530     0.9024909570
    8      C       3.9633495696    -0.7151746867    -0.2785287640
    9      C       3.9850309137    -0.5708298097     2.1359362856
   10      N       4.9480551867    -1.6139554718    -0.3007537034
   11      N       3.5188054889    -0.1394067799     3.3503592031
   12      C       5.0907536499    -1.3947355456     2.1048465902
   13      C       5.6239853440    -1.8172535534     0.8604927444
   14      S       4.5651640987    -0.8300082059     4.3697317209
   15      N       5.5516099517    -1.6783144588     3.3463378181
   16      C       6.9778707959    -2.3958848850     0.6331054860
   17      S       7.5149594630    -3.5273463063    -0.5361660033
   18      C       8.0483054191    -1.7770741046     1.2793050957
   19      C       9.2170331283    -3.1089540174    -0.2338232663
   20      S       8.1137427277    -0.4791097272     2.4306262644
   21      C       9.2768984618    -2.1124163512     0.6937304097
   22      C      10.3339365997    -3.7882890731    -0.8693518003
   23      C       9.9438059574    -0.5076062754     2.2235477233
   24      C      10.3380915078    -1.3829924484     1.2111925718
   25      N       9.9435074970    -4.8806920055    -1.4822652925
   26      S      12.1289408910    -3.4419637511    -0.8641205760
   27      C      11.0203248202    -5.4779102140    -2.0953010697
   28      C      12.2451125569    -4.7908199213    -1.9477275971
   29      C       0.2043710894     4.5736591751     0.5882688867
   30      H      -0.6925748921     1.9699083961     0.6340923210
   31      H       0.6543856104    -0.0599076424     0.8556103886
   32      H       4.1600823828     2.5268812071     0.7687795867
   33      H       3.4461582185    -0.4946690623    -1.2119597341
   34      H      10.6096059589     0.2136456721     2.6783795452
   35      H      11.3676432208    -1.4369626134     0.8748452934
   36      H      10.7277777641    -6.3493611822    -2.6663417248
   37      H      13.1777939806    -5.0826309693    -2.4129347274
   38      H       0.5696949635     5.2317857723    -0.2099816059
   39      C       0.3465739491     5.3230855936     1.9061077957
   40      H      -0.8588699258     4.4269198794     0.3622641905
   41      H       1.4104751170     5.5200034184     2.0850733655
   42      H      -0.0931341083     4.6477681352     2.6505580322
   43      C      -0.3039852518     6.6789353004     1.9339160420
   44      H       0.2781482324     7.3416718212     1.2819575229
   45      C      -0.1898585978     7.1946052339     3.4042430894
   46      H      -1.3775558681     6.5782171696     1.7316884720
   47      H       0.8444892088     7.2831256716     3.7566232068
   48      H      -0.6332276633     6.4656610495     4.0936045677
   49      C      -0.8286543962     8.5610914409     3.5534287934
   50      H      -0.4232241016     9.1416937743     2.7156882568
   51      C      -0.5341270558     9.1727342927     4.9140572024
   52      H      -1.9239292273     8.5391609771     3.4903645467
   53      H      -1.3683296651     8.8567327036     5.5522664176
   54      H      -0.6696183997    10.2590003462     4.9890115674
   55      H       0.3864293709     8.7699086023     5.3556365594
   56      C     -10.7965426148    -1.7289019224    -0.6816426401
   57      C     -10.4855018966    -0.8845693608    -1.7613459314
   58      N      -9.8615216013    -2.0986988750     0.1887687098
   59      C      -9.1118180040    -0.5499153488    -1.9057940382
   60      C      -8.6107966060    -1.6713265867     0.0743444404
   61      C      -8.0750159672    -0.9093616480    -0.9918110545
   62      C      -6.6529802296    -0.4658341026    -1.2296275328
   63      C      -6.3118025762     0.4817379439    -2.3017562684
   64      C      -5.5160033079    -1.0031947178    -0.5708650197
   65      N      -5.0728898305     0.8604218393    -2.5243651539
   66      N      -5.6348823295    -1.9252755255     0.4010463766
   67      C      -4.1753758938    -0.6123558548    -0.8798474140
   68      C      -3.9843866418     0.3996670021    -1.8566108668
   69      S      -4.0850324659    -2.2021844360     0.9130511185
   70      N      -3.2422517384    -1.1574892547    -0.0510477476
   71      C      -2.7515087281     1.0564597649    -2.0900381930
   72      S      -2.5743110357     2.8053514320    -2.3425771299
   73      C      -1.5309581540     0.4703407114    -2.1614647371
   74      C      -0.8212826783     2.6683802824    -2.6977228494
   75      S      -1.0940907089    -1.2417776115    -2.1830676030
   76      C      -0.4942724235     1.3237986630    -2.5803790732
   77      C       0.0198490288     3.7125835036    -3.1804091702
   78      C       0.4770514119    -0.7566004688    -2.6003655499
   79      C       0.7236999651     0.6051617080    -2.7309154065
   80      N      -0.3439488803     4.9480973083    -2.9483235828
   81      S       1.6577081824     3.4335927579    -3.8425198533
   82      C       0.5939406423     5.7983948908    -3.5581811600
   83      C       1.7485024046     5.1587024482    -4.0595220778
   84      C     -12.2308446258    -2.1415151484    -0.3894217190
   85      H     -11.2658914223    -0.5216043381    -2.4237971223
   86      H      -8.9147549250     0.0250009139    -2.8065645049
   87      H      -7.8881659223    -2.0452088652     0.7980225020
   88      H      -7.0152548802     0.9420778587    -2.9934614215
   89      H       1.1464070894    -1.5929080708    -2.7559340941
   90      H       1.6986446136     0.9529205687    -3.0504442896
   91      H       0.4037033546     6.8610396049    -3.6199305403
   92      H       2.5869419557     5.5813101820    -4.5965572931
   93      H     -12.7660967260    -1.1967764395    -0.2303998304
   94      C     -12.5100209123    -3.0724691809     0.8157621634
   95      H     -12.6620277318    -2.5790958180    -1.2982353890
   96      H     -11.8341383233    -2.7538329435     1.6180705045
   97      H     -12.2166347689    -4.0843238458     0.5115324671
   98      C     -14.0568184978    -3.0915139870     1.1925386552
   99      H     -14.4466839000    -2.0757924768     1.3328482487
  100      C     -14.3438943439    -4.0867919565     2.3418563754
  101      H     -14.6475947735    -3.4405965319     0.3361568660
  102      H     -13.8434000705    -3.8133019213     3.2783688862
  103      H     -13.8709864732    -5.0097126578     1.9832695310
  104      C     -15.7888438520    -4.2917848496     2.4207666589
  105      H     -16.3419509983    -3.4558849877     2.8652921424
  106      C     -16.2325324870    -5.4469412474     3.2846017657
  107      H     -16.2350249285    -4.4534808626     1.4313942081
  108      H     -15.6893796420    -6.3942079081     3.1790325449
  109      H     -17.2404728074    -5.6202578613     2.8873969547
  110      H     -16.2633102239    -5.1249830405     4.3334748009
 ----------------------------------------------------------------

    9   -5663.4945517464      8.82E-06 Convergence criterion met
 Total energy in the final basis set = -5663.4945517464

                    Orbital Energies (a.u.)
 --------------------------------------------------------------

 Alpha MOs
 -- Occupied --
-88.993 -88.990 -88.934 -88.926 -88.924 -88.923 -88.916 -88.913
-14.395 -14.390 -14.388 -14.386 -14.349 -14.348 -14.345 -14.340
-14.325 -14.321 -10.270 -10.268 -10.265 -10.264 -10.263 -10.262
-10.255 -10.253 -10.248 -10.242 -10.240 -10.238 -10.236 -10.235
-10.235 -10.234 -10.233 -10.232 -10.232 -10.231 -10.231 -10.231
-10.230 -10.226 -10.223 -10.223 -10.221 -10.218 -10.216 -10.216
-10.213 -10.207 -10.206 -10.203 -10.202 -10.202 -10.201 -10.189
-10.185 -10.178 -10.176 -10.171 -10.170 -10.169 -10.168 -10.168
-10.167 -10.166 -10.165 -10.165  -8.048  -8.045  -7.993  -7.986
 -7.982  -7.982  -7.978  -7.973  -6.013  -6.010  -6.008  -6.006
 -6.005  -6.003  -5.958  -5.954  -5.950  -5.950  -5.947  -5.947
 -5.946  -5.943  -5.943  -5.942  -5.942  -5.939  -5.938  -5.938
 -5.938  -5.934  -5.934  -5.929  -1.039  -1.035  -0.967  -0.965
 -0.961  -0.958  -0.944  -0.929  -0.920  -0.915  -0.909  -0.904
 -0.853  -0.843  -0.834  -0.828  -0.816  -0.808  -0.807  -0.807
 -0.805  -0.804  -0.796  -0.795  -0.789  -0.779  -0.767  -0.765
 -0.749  -0.745  -0.744  -0.740  -0.726  -0.723  -0.714  -0.709
 -0.698  -0.687  -0.679  -0.671  -0.655  -0.649  -0.647  -0.638
 -0.637  -0.632  -0.628  -0.623  -0.608  -0.606  -0.599  -0.597
 -0.596  -0.591  -0.581  -0.576  -0.575  -0.571  -0.567  -0.562
 -0.550  -0.545  -0.543  -0.536  -0.530  -0.524  -0.519  -0.517
 -0.509  -0.504  -0.502  -0.500  -0.488  -0.480  -0.479  -0.477
 -0.477  -0.473  -0.472  -0.465  -0.464  -0.460  -0.455  -0.451
 -0.444  -0.442  -0.441  -0.437  -0.435  -0.433  -0.433  -0.432
 -0.430  -0.428  -0.424  -0.423  -0.417  -0.414  -0.414  -0.411
 -0.409  -0.406  -0.405  -0.403  -0.399  -0.399  -0.398  -0.397
 -0.393  -0.391  -0.391  -0.387  -0.385  -0.383  -0.383  -0.380
 -0.377  -0.376  -0.372  -0.366  -0.365  -0.363  -0.362  -0.359
 -0.356  -0.351  -0.348  -0.348  -0.346  -0.342  -0.340  -0.338
 -0.337  -0.335  -0.331  -0.329  -0.329  -0.323  -0.322  -0.321
 -0.318  -0.316  -0.314  -0.307  -0.305  -0.305  -0.303  -0.299
 -0.298  -0.296  -0.294  -0.292  -0.289  -0.289  -0.284  -0.281
 -0.273  -0.272  -0.267  -0.254  -0.253  -0.251  -0.247  -0.245
 -0.243  -0.238  -0.233  -0.231  -0.195  -0.192

          Ground-State Mulliken Net Atomic Charges

     Atom                 Charge (a.u.)
  ----------------------------------------
      1 C                     0.291414
      2 C                    -0.126582
      3 N                    -0.484757
      4 C                    -0.051028
      5 C                     0.071761
      6 C                     0.013333
      7 C                    -0.044915
      8 C                     0.077971
      9 C                     0.231592
     10 N                    -0.478129
     11 N                    -0.523053
     12 C                     0.221154
     13 C                     0.230778
     14 S                     0.613783
     15 N                    -0.544860
     16 C                    -0.187289
     17 S                     0.355578
     18 C                    -0.129699
     19 C                    -0.249054
     20 S                     0.256274
     21 C                     0.165831
     22 C                     0.075880
     23 C                    -0.308136
     24 C                    -0.071797
     25 N                    -0.420744
     26 S                     0.272623
     27 C                     0.117983
     28 C                    -0.322064
     29 C                    -0.230864
     30 H                     0.099064
     31 H                     0.107708
     32 H                     0.105189
     33 H                     0.107763
     34 H                     0.127301
     35 H                     0.111715
     36 H                     0.115433
     37 H                     0.135799
     38 H                     0.117645
     39 C                    -0.171160
     40 H                     0.100611
     41 H                     0.112955
     42 H                     0.086152
     43 C                    -0.173336
     44 H                     0.096473
     45 C                    -0.177223
     46 H                     0.093627
     47 H                     0.089757
     48 H                     0.088024
     49 C                    -0.165335
     50 H                     0.088984
     51 C                    -0.324177
     52 H                     0.090638
     53 H                     0.099652
     54 H                     0.098356
     55 H                     0.100871
     56 C                     0.286675
     57 C                    -0.115250
     58 N                    -0.488679
     59 C                    -0.104726
     60 C                     0.068106
     61 C                     0.062561
     62 C                     0.038583
     63 C                     0.066392
     64 C                     0.227868
     65 N                    -0.504874
     66 N                    -0.555674
     67 C                     0.221546
     68 C                     0.244647
     69 S                     0.608000
     70 N                    -0.556206
     71 C                    -0.201171
     72 S                     0.326890
     73 C                    -0.109381
     74 C                    -0.208143
     75 S                     0.290569
     76 C                     0.126637
     77 C                     0.066123
     78 C                    -0.304095
     79 C                    -0.083702
     80 N                    -0.431162
     81 S                     0.281133
     82 C                     0.108688
     83 C                    -0.308885
     84 C                    -0.249212
     85 H                     0.094769
     86 H                     0.090023
     87 H                     0.123591
     88 H                     0.118536
     89 H                     0.136147
     90 H                     0.123191
     91 H                     0.115988
     92 H                     0.138158
     93 H                     0.113180
     94 C                    -0.173830
     95 H                     0.107233
     96 H                     0.119886
     97 H                     0.097911
     98 C                    -0.188744
     99 H                     0.087590
    100 C                    -0.153835
    101 H                     0.087738
    102 H                     0.094421
    103 H                     0.092989
    104 C                    -0.175927
    105 H                     0.093654
    106 C                    -0.315262
    107 H                     0.088897
    108 H                     0.098021
    109 H                     0.095614
    110 H                     0.101334
  ----------------------------------------
  Sum of atomic charges =     0.000000

                    Cartesian Multipole Moments
 -----------------------------------------------------------------
    Charge (ESU x 10^10)
                 0.0000
    Dipole Moment (Debye)
         X       1.3090      Y      -0.0089      Z      -1.4884
       Tot       1.9822
    Quadrupole Moments (Debye-Ang)
        XX    -373.3175     XY      -1.0204     YY    -450.3982
        XZ       2.7860     YZ       1.2534     ZZ    -437.7267

 Total job time:  90.92s(wall), 980.97s(cpu)
        *  Thank you very much for using Q-Chem.  Have a nice day.  *
