 Q-Chem 4.4, Q-Chem, Inc., Pleasanton, CA (2016)
 Q-Chem 4.4.2 for Intel X86 Linux

User input:
--------------------------------------------------------------
$comment
SP
$end

$rem
MEM_STATIC 5000
MEM_TOTAL 20000
JOBTYPE SP
EXCHANGE B3LYP
BASIS 6-31g(d,p)
$end

$molecule
0 1
C          25.281000     -8.944000     -1.888000
C          24.557000     -7.782000     -2.334000
N          25.079000     -9.472000     -0.663000
C          23.825000     -7.107000     -1.328000
C          24.287000     -8.884000      0.264000
C          23.578000     -7.726000     -0.089000
C          22.666000     -7.001000      0.958000
C          23.109000     -6.627000      2.197000
C          21.306000     -6.845000      0.760000
N          22.335000     -5.996000      3.133000
N          20.666000     -7.173000     -0.371000
C          20.469000     -6.203000      1.666000
C          21.009000     -5.809000      2.922000
S          19.128000     -6.759000     -0.219000
N          19.159000     -6.032000      1.244000
C          20.148000     -5.375000      4.019000
S          18.502000     -5.839000      4.196000
C          20.623000     -4.788000      5.147000
C          18.585000     -5.624000      5.939000
S          22.159000     -4.004000      5.327000
C          19.774000     -4.906000      6.235000
C          17.629000     -6.040000      6.911000
C          21.817000     -4.041000      7.079000
C          20.509000     -4.491000      7.415000
N          16.529000     -6.608000      6.463000
S          17.650000     -5.837000      8.670000
C          15.574000     -6.779000      7.441000
C          16.053000     -6.601000      8.736000
C          26.335000     -9.594000     -2.718000
H          24.611000     -7.519000     -3.386000
H          23.277000     -6.216000     -1.621000
H          24.178000     -9.364000      1.235000
H          24.176000     -6.680000      2.412000
H          22.599000     -3.684000      7.736000
H          20.172000     -4.720000      8.419000
H          14.566000     -7.148000      7.311000
H          15.542000     -6.745000      9.679000
H          26.217000    -10.671000     -2.541000
C          27.796000     -9.193000     -2.351000
H          26.010000     -9.449000     -3.755000
H          28.155000     -9.585000     -1.392000
H          27.789000     -8.096000     -2.378000
C          28.807000     -9.690000     -3.341000
H          28.995000    -10.758000     -3.174000
C          30.173000     -8.985000     -3.099000
H          28.594000     -9.483000     -4.397000
H          30.598000     -9.376000     -2.166000
H          29.947000     -7.916000     -3.006000
C          31.132000     -9.416000     -4.214000
H          31.087000    -10.511000     -4.271000
C          32.621000     -8.918000     -4.117000
H          30.655000     -9.143000     -5.164000
H          33.034000     -9.047000     -3.108000
H          32.649000     -7.869000     -4.434000
H          33.317000     -9.447000     -4.779000
C          11.293000     -1.514000      3.719000
C          10.607000     -2.179000      2.674000
N          12.587000     -1.183000      3.641000
C          11.320000     -2.494000      1.492000
C          13.282000     -1.486000      2.515000
C          12.710000     -2.206000      1.417000
C          13.571000     -2.690000      0.254000
C          12.990000     -3.226000     -0.943000
C          15.018000     -2.898000      0.354000
N          13.680000     -3.575000     -2.019000
N          15.775000     -2.779000      1.435000
C          15.760000     -3.241000     -0.789000
C          15.078000     -3.525000     -2.023000
S          17.263000     -3.166000      1.015000
N          17.062000     -3.578000     -0.541000
C          15.692000     -3.806000     -3.357000
S          14.964000     -4.815000     -4.631000
C          16.631000     -2.999000     -3.988000
C          15.801000     -3.874000     -5.951000
S          17.466000     -1.690000     -3.165000
C          16.702000     -3.052000     -5.341000
C          15.326000     -3.868000     -7.298000
C          18.085000     -1.295000     -4.767000
C          17.464000     -1.980000     -5.835000
N          15.642000     -2.842000     -8.036000
S          14.358000     -5.076000     -7.949000
C          15.318000     -3.094000     -9.375000
C          14.658000     -4.276000     -9.476000
C          10.640000     -1.091000      5.008000
H           9.533000     -2.297000      2.779000
H          10.706000     -2.819000      0.657000
H          14.326000     -1.180000      2.577000
H          11.919000     -3.364000     -1.085000
H          18.873000     -0.574000     -4.936000
H          17.660000     -1.703000     -6.864000
H          15.620000     -2.443000    -10.184000
H          14.281000     -4.739000    -10.378000
H          11.330000     -0.438000      5.556000
C          10.294000     -2.289000      6.003000
H           9.718000     -0.576000      4.714000
H          11.256000     -2.812000      6.062000
H           9.559000     -2.955000      5.534000
C           9.817000     -1.872000      7.458000
H           8.859000     -1.368000      7.285000
C          10.760000     -0.856000      8.221000
H           9.643000     -2.784000      8.042000
H          10.538000      0.108000      7.747000
H          11.739000     -1.251000      7.925000
C          10.761000     -0.833000      9.760000
H           9.733000     -0.654000     10.098000
C          11.681000      0.360000     10.239000
H          11.172000     -1.768000     10.163000
H          11.433000      1.335000      9.802000
H          12.761000      0.213000     10.113000
H          11.556000      0.433000     11.326000
$end

--------------------------------------------------------------

             Standard Nuclear Orientation (Angstroms)
    I     Atom           X                Y                Z
 ----------------------------------------------------------------
    1      C       8.3872122003    -1.6950465632    -1.0647780873
    2      C       7.6267105531    -0.7500911501    -0.2888705466
    3      N       7.8071003225    -2.7800372917    -1.6183829360
    4      C       6.3169895580    -1.1663510527     0.0500152874
    5      C       6.5175117163    -3.1181213689    -1.3838677263
    6      C       5.7249980291    -2.2617971629    -0.6048395433
    7      C       4.2336391437    -2.6236353602    -0.2909927749
    8      C       3.8564148691    -3.8268871085     0.2392270632
    9      C       3.1850432198    -1.8139270539    -0.6884333956
   10      N       2.5621922987    -4.1722027853     0.5204352096
   11      N       3.3356222013    -0.6079486062    -1.2534882194
   12      C       1.8511294678    -2.1028025696    -0.4223619041
   13      C       1.5366545757    -3.3600647853     0.1648086531
   14      S       1.8850088352     0.0274473354    -1.4813848174
   15      N       0.9469614430    -1.1168924437    -0.7882668189
   16      C       0.1612468460    -3.8466907550     0.2321491511
   17      S      -1.0883210511    -3.3613689733    -0.8444119660
   18      C      -0.2088415768    -4.9245551382     0.9695913053
   19      C      -1.9464444134    -4.8760205337    -0.5982048467
   20      S       0.6687075023    -5.6081244508     2.2996261202
   21      C      -1.3816241524    -5.5195447070     0.5348069411
   22      C      -3.0466721371    -5.3820012267    -1.3500415939
   23      C      -0.4489656610    -6.9919927567     2.1461588205
   24      C      -1.5095799465    -6.7931075952     1.2178258900
   25      N      -3.5170392798    -4.6153506986    -2.3114622712
   26      S      -3.9582928561    -6.8854154989    -1.1392711248
   27      C      -4.7031002633    -5.0778020988    -2.8379107928
   28      C      -5.0118053639    -6.3853160855    -2.4728651307
   29      C       9.8609783853    -1.5707226199    -1.2515206621
   30      H       8.0940292605     0.1966235308    -0.0356245424
   31      H       5.7156669840    -0.4877026163     0.6482472339
   32      H       6.1197322233    -4.0132530076    -1.8588759623
   33      H       4.6262544520    -4.5002679537     0.6152965435
   34      H      -0.2639246719    -7.8417843826     2.7897705240
   35      H      -2.1923041556    -7.5650903982     0.8832273155
   36      H      -5.3229028240    -4.5896233671    -3.5772695093
   37      H      -5.8334891685    -7.0095176380    -2.7989236334
   38      H      10.0477444767    -1.8889437867    -2.2854624961
   39      C      10.7178267816    -2.4609918396    -0.3011299307
   40      H      10.0569703326    -0.4920289956    -1.2566413503
   41      H      10.6716205176    -3.5363774722    -0.5100239763
   42      H      10.3505969061    -2.2139754315     0.7030175249
   43      C      12.1829398076    -2.1471789412    -0.3659009566
   44      H      12.6172161313    -2.5911284137    -1.2704284247
   45      C      12.9206972848    -2.8250139033     0.8248125560
   46      H      12.4569587842    -1.0893270422    -0.2698959547
   47      H      12.9398425448    -3.9069018268     0.6427494350
   48      H      12.3285788688    -2.5908083722     1.7175776711
   49      C      14.3825601048    -2.3657185915     0.7988912866
   50      H      14.7483806349    -2.5158824857    -0.2247908636
   51      C      15.3606230458    -3.0133812665     1.8469656842
   52      H      14.3702802359    -1.2695426635     0.8518586318
   53      H      15.2434993938    -4.1036157908     1.9013874841
   54      H      15.1795367829    -2.5385484310     2.8182614907
   55      H      16.4235406588    -2.8519268658     1.6310035939
   56      C      -8.1214332943     1.1337136975     0.2657226910
   57      C      -7.9346556139     2.2174467601    -0.6261757040
   58      N      -7.1574148928     0.6920396913     1.0816109149
   59      C      -6.6772252083     2.8680468254    -0.6436779939
   60      C      -5.9458887364     1.3042019466     1.0685057462
   61      C      -5.6228982008     2.3723695313     0.1707958125
   62      C      -4.1981721198     2.9065417578     0.0569466735
   63      C      -3.8969194379     4.1020583866    -0.6763014510
   64      C      -3.0140890170     2.1331589306     0.4402209986
   65      N      -2.6981127064     4.6635796059    -0.7331639243
   66      N      -2.9748965521     0.8767294415     0.8592912667
   67      C      -1.7428551435     2.7311913881     0.4088583016
   68      C      -1.5907256800     4.0545840314    -0.1333819940
   69      S      -1.4427592189     0.5028682895     1.0897170271
   70      N      -0.7034111448     1.8673272230     0.6175970801
   71      C      -0.3501636012     4.8887273416    -0.1602830496
   72      S       0.0322676621     6.1218849232    -1.3867453229
   73      C       0.4362762359     5.1832694947     0.9469153529
   74      C       1.0275449506     7.0899578350    -0.2032302379
   75      S       0.2575395367     4.3562475331     2.4870851057
   76      C       1.1722219359     6.3215845016     0.9140235338
   77      C       1.3019948507     8.4780215479    -0.3982337792
   78      C       1.4020528314     5.5577903559     3.0803592102
   79      C       1.6590886133     6.6286307434     2.1956426051
   80      N       1.5656384080     9.1873371190     0.6622092864
   81      S       1.2554248972     9.2344741949    -1.8967996377
   82      C       2.0455727855    10.4493590060     0.2902351609
   83      C       1.9687969970    10.5939724710    -1.0573988488
   84      C      -9.4198465532     0.3847240615     0.4071317931
   85      H      -8.8079862486     2.5803782421    -1.1590915903
   86      H      -6.6513662251     3.8047716389    -1.1929720289
   87      H      -5.2424434671     0.8466726738     1.7636659562
   88      H      -4.6403689965     4.6751596997    -1.2286479351
   89      H       1.8709815963     5.4991752802     4.0529927930
   90      H       2.2244086279     7.4948559650     2.5182153050
   91      H       2.4607737334    11.1515393119     1.0001907869
   92      H       2.2648262721    11.4559047104    -1.6401007304
   93      H      -9.3565690832    -0.2695370569     1.2850562492
   94      C      -9.7743369226    -0.5700284214    -0.8207644868
   95      H     -10.1925192596     1.1552648330     0.5119593103
   96      H      -8.8520350816    -1.1549359051    -0.9192355465
   97      H      -9.9078903431     0.0327276168    -1.7277323154
   98      C     -11.0104593532    -1.5434412374    -0.6136127882
   99      H     -11.8673783585    -0.8646591410    -0.5320426716
  100      C     -10.9730678330    -2.4250529111     0.6997937486
  101      H     -11.1238172956    -2.1587170537    -1.5145354524
  102      H     -11.2491678729    -1.7189757813     1.4925609621
  103      H      -9.9074596798    -2.6820611996     0.7223326831
  104      C     -11.7317975216    -3.7637517646     0.7353695726
  105      H     -12.7834658041    -3.5649565275     0.4954877739
  106      C     -11.6346362448    -4.3517621887     2.1995735978
  107      H     -11.2791713846    -4.4862137251     0.0434640186
  108      H     -11.9534424998    -3.6641826477     2.9924764586
  109      H     -10.6556923592    -4.7522687664     2.4913754998
  110      H     -12.2908549986    -5.2299123316     2.2270012058
 ----------------------------------------------------------------

   10   -5663.4712138093      3.56E-06 Convergence criterion met
 Total energy in the final basis set = -5663.4712138093

                    Orbital Energies (a.u.)
 --------------------------------------------------------------

 Alpha MOs
 -- Occupied --
-88.987 -88.986 -88.924 -88.924 -88.923 -88.915 -88.912 -88.909
-14.386 -14.384 -14.376 -14.374 -14.348 -14.346 -14.338 -14.333
-14.324 -14.323 -10.267 -10.267 -10.262 -10.259 -10.258 -10.255
-10.250 -10.247 -10.241 -10.241 -10.238 -10.236 -10.235 -10.235
-10.234 -10.231 -10.230 -10.230 -10.228 -10.228 -10.227 -10.227
-10.226 -10.225 -10.224 -10.224 -10.223 -10.222 -10.217 -10.217
-10.217 -10.212 -10.212 -10.211 -10.204 -10.203 -10.201 -10.195
-10.187 -10.186 -10.183 -10.182 -10.182 -10.182 -10.180 -10.177
-10.175 -10.175 -10.174 -10.174  -8.043  -8.042  -7.986  -7.984
 -7.983  -7.974  -7.972  -7.969  -6.008  -6.007  -6.002  -6.001
 -6.001  -6.000  -5.950  -5.948  -5.947  -5.946  -5.945  -5.944
 -5.943  -5.941  -5.940  -5.939  -5.937  -5.935  -5.934  -5.933
 -5.931  -5.931  -5.928  -5.925  -1.046  -1.038  -0.973  -0.964
 -0.952  -0.946  -0.933  -0.930  -0.916  -0.914  -0.905  -0.899
 -0.845  -0.837  -0.828  -0.822  -0.810  -0.808  -0.807  -0.805
 -0.796  -0.795  -0.793  -0.793  -0.783  -0.778  -0.768  -0.762
 -0.750  -0.748  -0.742  -0.737  -0.725  -0.716  -0.708  -0.705
 -0.694  -0.687  -0.673  -0.671  -0.654  -0.652  -0.644  -0.640
 -0.634  -0.632  -0.627  -0.622  -0.607  -0.605  -0.595  -0.593
 -0.593  -0.590  -0.584  -0.579  -0.579  -0.573  -0.573  -0.557
 -0.553  -0.540  -0.538  -0.534  -0.523  -0.522  -0.511  -0.510
 -0.503  -0.502  -0.501  -0.495  -0.491  -0.480  -0.478  -0.476
 -0.473  -0.471  -0.469  -0.466  -0.464  -0.463  -0.451  -0.444
 -0.441  -0.440  -0.439  -0.437  -0.435  -0.431  -0.429  -0.428
 -0.424  -0.423  -0.423  -0.417  -0.417  -0.415  -0.412  -0.411
 -0.409  -0.408  -0.402  -0.401  -0.398  -0.397  -0.393  -0.393
 -0.391  -0.390  -0.389  -0.387  -0.387  -0.386  -0.385  -0.383
 -0.379  -0.375  -0.374  -0.370  -0.366  -0.366  -0.360  -0.360
 -0.353  -0.352  -0.352  -0.350  -0.345  -0.343  -0.341  -0.339
 -0.339  -0.337  -0.333  -0.330  -0.327  -0.323  -0.321  -0.319
 -0.319  -0.311  -0.310  -0.305  -0.303  -0.301  -0.298  -0.298
 -0.292  -0.292  -0.288  -0.288  -0.283  -0.278  -0.274  -0.273
 -0.273  -0.272  -0.264  -0.260  -0.256  -0.249  -0.246  -0.245
 -0.242  -0.239  -0.233  -0.223  -0.192  -0.189

          Ground-State Mulliken Net Atomic Charges

     Atom                 Charge (a.u.)
  ----------------------------------------
      1 C                     0.257537
      2 C                    -0.109594
      3 N                    -0.476715
      4 C                    -0.071648
      5 C                     0.080243
      6 C                     0.033777
      7 C                     0.003040
      8 C                     0.045293
      9 C                     0.248406
     10 N                    -0.524920
     11 N                    -0.534219
     12 C                     0.177799
     13 C                     0.292060
     14 S                     0.630560
     15 N                    -0.573309
     16 C                    -0.206852
     17 S                     0.362745
     18 C                    -0.107470
     19 C                    -0.219722
     20 S                     0.294298
     21 C                     0.129530
     22 C                     0.074371
     23 C                    -0.287779
     24 C                    -0.102830
     25 N                    -0.439222
     26 S                     0.254148
     27 C                     0.121863
     28 C                    -0.308504
     29 C                    -0.221157
     30 H                     0.097268
     31 H                     0.106097
     32 H                     0.110482
     33 H                     0.113703
     34 H                     0.129574
     35 H                     0.115708
     36 H                     0.119157
     37 H                     0.135532
     38 H                     0.117276
     39 C                    -0.161773
     40 H                     0.090546
     41 H                     0.114486
     42 H                     0.091247
     43 C                    -0.180143
     44 H                     0.096639
     45 C                    -0.170118
     46 H                     0.089282
     47 H                     0.090536
     48 H                     0.090857
     49 C                    -0.179952
     50 H                     0.092647
     51 C                    -0.324154
     52 H                     0.088682
     53 H                     0.103767
     54 H                     0.106250
     55 H                     0.101686
     56 C                     0.280556
     57 C                    -0.115878
     58 N                    -0.483726
     59 C                    -0.083635
     60 C                     0.077923
     61 C                     0.032455
     62 C                     0.049149
     63 C                     0.062404
     64 C                     0.220835
     65 N                    -0.471047
     66 N                    -0.538260
     67 C                     0.164201
     68 C                     0.212254
     69 S                     0.638482
     70 N                    -0.521540
     71 C                    -0.196551
     72 S                     0.274550
     73 C                    -0.127111
     74 C                    -0.253567
     75 S                     0.263179
     76 C                     0.202861
     77 C                     0.109586
     78 C                    -0.295423
     79 C                    -0.069684
     80 N                    -0.459137
     81 S                     0.269219
     82 C                     0.126064
     83 C                    -0.310405
     84 C                    -0.237291
     85 H                     0.091510
     86 H                     0.104886
     87 H                     0.128852
     88 H                     0.109239
     89 H                     0.120785
     90 H                     0.123424
     91 H                     0.120601
     92 H                     0.121317
     93 H                     0.128639
     94 C                    -0.190535
     95 H                     0.095587
     96 H                     0.105589
     97 H                     0.089547
     98 C                    -0.191119
     99 H                     0.089379
    100 C                    -0.166217
    101 H                     0.090373
    102 H                     0.098401
    103 H                     0.100930
    104 C                    -0.181245
    105 H                     0.097396
    106 C                    -0.323004
    107 H                     0.098506
    108 H                     0.106074
    109 H                     0.107376
    110 H                     0.096239
  ----------------------------------------
  Sum of atomic charges =     0.000000

                    Cartesian Multipole Moments
 -----------------------------------------------------------------
    Charge (ESU x 10^10)
                 0.0000
    Dipole Moment (Debye)
         X      -0.7204      Y       0.8035      Z       0.3073
       Tot       1.1221
    Quadrupole Moments (Debye-Ang)
        XX    -406.2362     XY      25.8735     YY    -401.3485
        XZ      25.1354     YZ      -7.5616     ZZ    -441.4482

 Total job time:  92.29s(wall), 982.08s(cpu)
        *  Thank you very much for using Q-Chem.  Have a nice day.  *
