 Q-Chem 4.4, Q-Chem, Inc., Pleasanton, CA (2016)
 Q-Chem 4.4.2 for Intel X86 Linux

User input:
--------------------------------------------------------------
$comment
SP
$end

$rem
MEM_STATIC 5000
MEM_TOTAL 20000
JOBTYPE SP
EXCHANGE B3LYP
BASIS 6-31g(d,p)
$end

$molecule
0 1
C          15.100000     -3.473000     11.808000
C          14.383000     -2.894000     10.722000
N          16.446000     -3.427000     11.864000
C          15.038000     -2.454000      9.612000
C          17.070000     -3.026000     10.763000
C          16.475000     -2.489000      9.599000
C          17.293000     -2.208000      8.301000
C          18.570000     -1.715000      8.392000
C          16.846000     -2.469000      7.042000
N          19.361000     -1.514000      7.354000
N          15.634000     -2.972000      6.649000
C          17.624000     -2.154000      5.908000
C          18.935000     -1.602000      6.110000
S          15.718000     -3.131000      5.076000
N          17.163000     -2.512000      4.728000
C          19.840000     -1.174000      4.988000
S          19.623000     -1.766000      3.329000
C          20.931000     -0.405000      5.116000
C          21.151000     -0.887000      2.797000
S          21.675000      0.327000      6.497000
C          21.651000     -0.302000      3.921000
C          21.716000     -0.824000      1.482000
C          23.037000      0.846000      5.551000
C          22.887000      0.427000      4.204000
N          21.021000     -1.480000      0.594000
S          22.775000      0.485000      0.853000
C          21.180000     -1.028000     -0.613000
C          22.175000     -0.079000     -0.693000
C          14.385000     -4.035000     13.012000
H          13.303000     -2.896000     10.835000
H          14.558000     -1.940000      8.784000
H          18.152000     -3.135000     10.832000
H          18.989000     -1.445000      9.360000
H          23.739000      1.525000      6.018000
H          23.636000      0.659000      3.455000
H          20.701000     -1.575000     -1.415000
H          22.609000      0.316000     -1.602000
H          15.107000     -3.785000     13.799000
C          14.265000     -5.594000     12.959000
H          13.454000     -3.499000     13.233000
H          13.798000     -5.955000     13.883000
H          15.236000     -6.102000     12.917000
C          13.430000     -6.271000     11.848000
H          13.870000     -6.083000     10.861000
C          11.896000     -5.927000     11.848000
H          13.569000     -7.341000     12.044000
H          11.493000     -6.412000     10.951000
H          11.822000     -4.832000     11.866000
C          11.175000     -6.527000     13.125000
H          11.426000     -7.585000     13.273000
C           9.636000     -6.414000     12.785000
H          11.349000     -5.887000     13.999000
H           9.041000     -7.038000     13.463000
H           9.494000     -6.877000     11.801000
H           9.232000     -5.395000     12.829000
C          11.293000     -1.514000      3.719000
C          10.607000     -2.179000      2.674000
N          12.587000     -1.183000      3.641000
C          11.320000     -2.494000      1.492000
C          13.282000     -1.486000      2.515000
C          12.710000     -2.206000      1.417000
C          13.571000     -2.690000      0.254000
C          12.990000     -3.226000     -0.943000
C          15.018000     -2.898000      0.354000
N          13.680000     -3.575000     -2.019000
N          15.775000     -2.779000      1.435000
C          15.760000     -3.241000     -0.789000
C          15.078000     -3.525000     -2.023000
S          17.263000     -3.166000      1.015000
N          17.062000     -3.578000     -0.541000
C          15.692000     -3.806000     -3.357000
S          14.964000     -4.815000     -4.631000
C          16.631000     -2.999000     -3.988000
C          15.801000     -3.874000     -5.951000
S          17.466000     -1.690000     -3.165000
C          16.702000     -3.052000     -5.341000
C          15.326000     -3.868000     -7.298000
C          18.085000     -1.295000     -4.767000
C          17.464000     -1.980000     -5.835000
N          15.642000     -2.842000     -8.036000
S          14.358000     -5.076000     -7.949000
C          15.318000     -3.094000     -9.375000
C          14.658000     -4.276000     -9.476000
C          10.640000     -1.091000      5.008000
H           9.533000     -2.297000      2.779000
H          10.706000     -2.819000      0.657000
H          14.326000     -1.180000      2.577000
H          11.919000     -3.364000     -1.085000
H          18.873000     -0.574000     -4.936000
H          17.660000     -1.703000     -6.864000
H          15.620000     -2.443000    -10.184000
H          14.281000     -4.739000    -10.378000
H          11.330000     -0.438000      5.556000
C          10.294000     -2.289000      6.003000
H           9.718000     -0.576000      4.714000
H          11.256000     -2.812000      6.062000
H           9.559000     -2.955000      5.534000
C           9.817000     -1.872000      7.458000
H           8.859000     -1.368000      7.285000
C          10.760000     -0.856000      8.221000
H           9.643000     -2.784000      8.042000
H          10.538000      0.108000      7.747000
H          11.739000     -1.251000      7.925000
C          10.761000     -0.833000      9.760000
H           9.733000     -0.654000     10.098000
C          11.681000      0.360000     10.239000
H          11.172000     -1.768000     10.163000
H          11.433000      1.335000      9.802000
H          12.761000      0.213000     10.113000
H          11.556000      0.433000     11.326000
$end

--------------------------------------------------------------

             Standard Nuclear Orientation (Angstroms)
    I     Atom           X                Y                Z
 ----------------------------------------------------------------
    1      C      -8.8527707597     0.1366985961     0.9545399886
    2      C      -7.8861536703    -0.5260275084     0.1451133316
    3      N      -8.6932697554     1.4223341910     1.3269222475
    4      C      -6.6796793077     0.0515787492    -0.1108468675
    5      C      -7.5011908482     1.9601974298     1.0988235509
    6      C      -6.4387947278     1.3867730764     0.3641202133
    7      C      -5.0231729419     2.0388100362     0.3028685809
    8      C      -4.9025485939     3.4034464634     0.2302312064
    9      C      -3.8553259801     1.3425663851     0.3691200111
   10      N      -3.7490721754     4.0459202129     0.2459038964
   11      N      -3.6676387746    -0.0112442777     0.4606197492
   12      C      -2.6074545976     1.9931512908     0.2690136015
   13      C      -2.5901188915     3.4252300954     0.1546511488
   14      S      -2.1038454701    -0.2267319567     0.5821991925
   15      N      -1.5212627400     1.2660777377     0.4259731410
   16      C      -1.3322116371     4.2317789454    -0.0134003075
   17      S       0.2621585964     3.5865781903     0.4242451474
   18      C      -1.2735921352     5.5130728544    -0.4043934951
   19      C       1.0434477644     5.2090083856     0.0398540739
   20      S      -2.5076246609     6.6526416581    -0.8228043781
   21      C       0.0221167063     6.0341626012    -0.3229191200
   22      C       2.4323657724     5.5536210219     0.1074402991
   23      C      -1.3494119761     7.9434755268    -0.9305647616
   24      C      -0.0498040533     7.4632589138    -0.6258005057
   25      N       3.1886546696     4.5603475536     0.4860428891
   26      S       3.2412052502     6.8539859567    -0.8335340552
   27      C       4.4121669366     4.6612548734     0.0626406628
   28      C       4.6635225295     5.8757627085    -0.5363727631
   29      C     -10.1633963027    -0.5202863521     1.3113543155
   30      H      -8.1695191232    -1.5221846300    -0.1813035937
   31      H      -5.9310177667    -0.3687241763    -0.7764528679
   32      H      -7.3988208780     2.9522527345     1.5378140537
   33      H      -5.7874528706     4.0308642621     0.1365491546
   34      H      -1.6886524191     8.8848309601    -1.3437231695
   35      H       0.8121646476     8.1209536999    -0.6423391589
   36      H       5.1195391458     3.9177292795     0.4070942139
   37      H       5.6357563449     6.2634484120    -0.8104588874
   38      H     -10.8217269463     0.3569851721     1.3235377660
   39      C     -10.1533545037    -1.1233809536     2.7549145200
   40      H     -10.5216716900    -1.1934123706     0.5230408562
   41      H     -11.1451389662    -1.5291689824     2.9870473605
   42      H      -9.9650011531    -0.3761779181     3.5352219204
   43      C      -9.1995107633    -2.2892318662     3.1025476147
   44      H      -8.1524034820    -1.9721052480     3.0243808094
   45      C      -9.4383949672    -3.6218606159     2.3034687997
   46      H      -9.3868000153    -2.4592919326     4.1696180481
   47      H      -8.6242319255    -4.2897142989     2.6090060306
   48      H      -9.4516463038    -3.3497454593     1.2401707495
   49      C     -10.8226025569    -4.2848544042     2.6971419960
   50      H     -10.9445148466    -4.3536146677     3.7855713322
   51      C     -10.7300849674    -5.7466099792     2.1041823561
   52      H     -11.6481805909    -3.7874609706     2.1729543561
   53      H     -11.5033009805    -6.3921629073     2.5383291218
   54      H      -9.7881968637    -6.1763707451     2.4660407320
   55      H     -10.8226233471    -5.8035259138     1.0125275459
   56      C      -1.4440708509    -4.0890553873    -2.3646496616
   57      C      -0.5315006959    -5.1011335581    -1.9802546976
   58      N      -1.1563227380    -2.7849180527    -2.2839785008
   59      C       0.7440439464    -4.7138898863    -1.5030270747
   60      C       0.0612565216    -2.4021222040    -1.8217252317
   61      C       1.0434609239    -3.3325293939    -1.3518263351
   62      C       2.3212769090    -2.8557654820    -0.6677002646
   63      C       3.4025152397    -3.7531226267    -0.3790138827
   64      C       2.4496300557    -1.5470988789    -0.0211786549
   65      N       4.5692571151    -3.3814560830     0.1272018583
   66      N       1.5046939477    -0.6317071055     0.1366967801
   67      C       3.6908718945    -1.1352350219     0.4929700209
   68      C       4.7963182372    -2.0551511296     0.5096654740
   69      S       2.1502274136     0.5790236458     0.9477026939
   70      N       3.6481430096     0.0205633578     1.2227517334
   71      C       6.2066692762    -1.7739459471     0.9187456523
   72      S       7.3335006851    -2.9675203837     1.6092324662
   73      C       6.9909283948    -0.7417541910     0.4180972593
   74      C       8.7836795619    -2.0969217321     0.9255006378
   75      S       6.3307867027     0.5747252461    -0.5406153348
   76      C       8.3370562027    -0.9023668029     0.4426434166
   77      C      10.0379141725    -2.7505497974     0.7261619968
   78      C       8.0165464675     1.0279768693    -0.7822079283
   79      C       8.9618627569     0.0671044046    -0.3596073843
   80      N      10.8319609953    -2.2517197903    -0.1781799006
   81      S      10.5086120601    -4.1337519364     1.5539810235
   82      C      12.0984789858    -2.8422587783    -0.0854605219
   83      C      12.0756186469    -3.8427836325     0.8317921265
   84      C      -2.8140910232    -4.3699316389    -2.9223343923
   85      H      -0.8077400187    -6.1287923316    -2.1948107084
   86      H       1.4658211833    -5.5205267692    -1.4123597730
   87      H       0.1706653347    -1.3184283533    -1.7892698831
   88      H       3.3702832650    -4.8226411208    -0.5823370016
   89      H       8.3194416572     1.9639005383    -1.2312595843
   90      H      10.0129433422     0.1763221671    -0.5989545871
   91      H      12.9548089459    -2.4836285740    -0.6400498980
   92      H      12.8991803336    -4.4802203301     1.1242346077
   93      H      -3.2355866379    -3.4352549800    -3.3116080623
   94      C      -3.8691674255    -4.9100660861    -1.8546202151
   95      H      -2.6628616170    -5.1213574916    -3.7060651207
   96      H      -3.7821715665    -4.1602083968    -1.0592591863
   97      H      -3.5330083428    -5.8786689449    -1.4640468250
   98      C      -5.3751499091    -5.0018272561    -2.3465954654
   99      H      -5.3492563004    -5.7715733643    -3.1266784417
  100      C      -5.9632418693    -3.6840195939    -2.9955984019
  101      H      -5.9928920715    -5.3561783777    -1.5123857175
  102      H      -5.5163019993    -3.6679294839    -3.9972180209
  103      H      -5.5211973961    -2.9339340089    -2.3292274101
  104      C      -7.4819745711    -3.4361619430    -2.9629094849
  105      H      -7.9764866485    -4.2924878666    -3.4374963769
  106      C      -7.7907396397    -2.1294294278    -3.7972980431
  107      H      -7.8283322266    -3.2770437065    -1.9332140148
  108      H      -7.3842965499    -2.1285618192    -4.8160724352
  109      H      -7.4967575199    -1.1813899308    -3.3296650402
  110      H      -8.8825756643    -2.0547349918    -3.8668526004
 ----------------------------------------------------------------

   10   -5663.4735924744      3.90E-06 Convergence criterion met
 Total energy in the final basis set = -5663.4735924744

                    Orbital Energies (a.u.)
 --------------------------------------------------------------

 Alpha MOs
 -- Occupied --
-88.986 -88.984 -88.931 -88.924 -88.920 -88.916 -88.911 -88.906
-14.384 -14.381 -14.378 -14.378 -14.349 -14.340 -14.336 -14.334
-14.329 -14.328 -10.268 -10.264 -10.260 -10.259 -10.259 -10.256
-10.250 -10.248 -10.242 -10.240 -10.237 -10.237 -10.236 -10.235
-10.232 -10.231 -10.230 -10.229 -10.229 -10.229 -10.229 -10.228
-10.227 -10.225 -10.225 -10.224 -10.224 -10.222 -10.221 -10.220
-10.218 -10.208 -10.208 -10.206 -10.206 -10.202 -10.196 -10.196
-10.190 -10.190 -10.187 -10.186 -10.186 -10.185 -10.182 -10.182
-10.181 -10.177 -10.175 -10.173  -8.042  -8.040  -7.991  -7.987
 -7.977  -7.975  -7.971  -7.967  -6.007  -6.005  -6.001  -6.000
 -5.999  -5.998  -5.955  -5.952  -5.951  -5.948  -5.947  -5.944
 -5.942  -5.939  -5.938  -5.936  -5.936  -5.934  -5.932  -5.932
 -5.932  -5.928  -5.927  -5.924  -1.051  -1.046  -0.988  -0.974
 -0.967  -0.947  -0.942  -0.938  -0.915  -0.915  -0.909  -0.906
 -0.839  -0.838  -0.833  -0.824  -0.809  -0.808  -0.808  -0.803
 -0.802  -0.799  -0.798  -0.795  -0.782  -0.781  -0.769  -0.764
 -0.752  -0.746  -0.740  -0.738  -0.722  -0.717  -0.707  -0.705
 -0.690  -0.690  -0.674  -0.672  -0.655  -0.653  -0.646  -0.643
 -0.633  -0.633  -0.625  -0.624  -0.614  -0.609  -0.606  -0.598
 -0.595  -0.592  -0.589  -0.587  -0.580  -0.578  -0.560  -0.554
 -0.550  -0.541  -0.540  -0.536  -0.528  -0.523  -0.520  -0.511
 -0.506  -0.503  -0.501  -0.494  -0.490  -0.480  -0.477  -0.476
 -0.474  -0.471  -0.469  -0.468  -0.466  -0.463  -0.453  -0.447
 -0.445  -0.444  -0.444  -0.438  -0.434  -0.433  -0.431  -0.431
 -0.429  -0.425  -0.421  -0.420  -0.418  -0.417  -0.415  -0.412
 -0.409  -0.407  -0.405  -0.400  -0.400  -0.399  -0.396  -0.394
 -0.393  -0.393  -0.391  -0.389  -0.387  -0.386  -0.384  -0.384
 -0.381  -0.379  -0.378  -0.370  -0.370  -0.368  -0.363  -0.356
 -0.354  -0.353  -0.352  -0.350  -0.346  -0.345  -0.341  -0.340
 -0.340  -0.336  -0.336  -0.334  -0.331  -0.323  -0.323  -0.321
 -0.315  -0.312  -0.308  -0.306  -0.304  -0.303  -0.300  -0.299
 -0.297  -0.296  -0.294  -0.291  -0.286  -0.284  -0.282  -0.275
 -0.274  -0.267  -0.266  -0.262  -0.258  -0.254  -0.250  -0.247
 -0.245  -0.241  -0.233  -0.225  -0.191  -0.190

          Ground-State Mulliken Net Atomic Charges

     Atom                 Charge (a.u.)
  ----------------------------------------
      1 C                     0.268406
      2 C                    -0.118221
      3 N                    -0.468198
      4 C                    -0.059846
      5 C                     0.068756
      6 C                     0.022030
      7 C                     0.053608
      8 C                     0.038127
      9 C                     0.225925
     10 N                    -0.515982
     11 N                    -0.540879
     12 C                     0.176311
     13 C                     0.308554
     14 S                     0.629150
     15 N                    -0.560377
     16 C                    -0.236260
     17 S                     0.346764
     18 C                    -0.095523
     19 C                    -0.229305
     20 S                     0.285811
     21 C                     0.159611
     22 C                     0.034189
     23 C                    -0.301094
     24 C                    -0.104260
     25 N                    -0.397011
     26 S                     0.270972
     27 C                     0.122317
     28 C                    -0.322788
     29 C                    -0.239226
     30 H                     0.091314
     31 H                     0.117664
     32 H                     0.095524
     33 H                     0.115023
     34 H                     0.141117
     35 H                     0.101019
     36 H                     0.127407
     37 H                     0.128335
     38 H                     0.126367
     39 C                    -0.180691
     40 H                     0.098505
     41 H                     0.095916
     42 H                     0.108594
     43 C                    -0.191721
     44 H                     0.091922
     45 C                    -0.165751
     46 H                     0.088733
     47 H                     0.094974
     48 H                     0.090255
     49 C                    -0.180512
     50 H                     0.100073
     51 C                    -0.321807
     52 H                     0.101798
     53 H                     0.093676
     54 H                     0.101516
     55 H                     0.104592
     56 C                     0.279480
     57 C                    -0.115838
     58 N                    -0.488714
     59 C                    -0.083720
     60 C                     0.072251
     61 C                     0.032249
     62 C                     0.048249
     63 C                     0.062715
     64 C                     0.224776
     65 N                    -0.471588
     66 N                    -0.558486
     67 C                     0.160252
     68 C                     0.212398
     69 S                     0.658003
     70 N                    -0.511219
     71 C                    -0.193216
     72 S                     0.278323
     73 C                    -0.126920
     74 C                    -0.254069
     75 S                     0.263207
     76 C                     0.202822
     77 C                     0.109217
     78 C                    -0.297277
     79 C                    -0.068731
     80 N                    -0.458816
     81 S                     0.270258
     82 C                     0.126191
     83 C                    -0.310377
     84 C                    -0.237012
     85 H                     0.093172
     86 H                     0.106501
     87 H                     0.132838
     88 H                     0.109265
     89 H                     0.118992
     90 H                     0.123893
     91 H                     0.120878
     92 H                     0.121803
     93 H                     0.127495
     94 C                    -0.190893
     95 H                     0.096904
     96 H                     0.105278
     97 H                     0.090762
     98 C                    -0.191939
     99 H                     0.090560
    100 C                    -0.168633
    101 H                     0.092997
    102 H                     0.099837
    103 H                     0.100860
    104 C                    -0.186350
    105 H                     0.099672
    106 C                    -0.325968
    107 H                     0.098257
    108 H                     0.107290
    109 H                     0.109011
    110 H                     0.097711
  ----------------------------------------
  Sum of atomic charges =     0.000000

                    Cartesian Multipole Moments
 -----------------------------------------------------------------
    Charge (ESU x 10^10)
                 0.0000
    Dipole Moment (Debye)
         X       2.1623      Y      -1.7432      Z      -1.8912
       Tot       3.3602
    Quadrupole Moments (Debye-Ang)
        XX    -401.9010     XY      19.3427     YY    -405.4897
        XZ       1.5780     YZ      -9.7824     ZZ    -451.4693

 Total job time:  99.24s(wall), 1091.23s(cpu)
        *  Thank you very much for using Q-Chem.  Have a nice day.  *
