 Q-Chem 4.4, Q-Chem, Inc., Pleasanton, CA (2016)
 Q-Chem 4.4.2 for Intel X86 Linux

User input:
--------------------------------------------------------------
$comment
SP
$end

$rem
MEM_STATIC 5000
MEM_TOTAL 20000
JOBTYPE SP
EXCHANGE B3LYP
BASIS 6-31g(d,p)
$end

$molecule
0 1
C          -3.465000    -20.114000      2.214000
C          -3.406000    -20.151000      0.821000
N          -2.685000    -19.212000      2.901000
C          -2.689000    -19.201000      0.109000
C          -2.056000    -18.242000      2.193000
C          -2.094000    -18.120000      0.799000
C          -1.520000    -16.973000      0.107000
C          -0.453000    -16.974000     -0.838000
C          -2.066000    -15.697000      0.306000
N           0.128000    -15.893000     -1.487000
N          -3.177000    -15.417000      0.973000
C          -1.538000    -14.561000     -0.373000
C          -0.364000    -14.663000     -1.208000
S          -3.492000    -13.825000      0.781000
N          -2.232000    -13.421000     -0.156000
C           0.249000    -13.452000     -1.835000
S          -0.130000    -11.806000     -1.402000
C           1.424000    -13.560000     -2.607000
C           1.323000    -11.282000     -2.326000
S           2.327000    -14.915000     -3.354000
C           1.920000    -12.312000     -2.900000
C           1.734000     -9.924000     -2.159000
C           3.434000    -13.676000     -4.011000
C           3.086000    -12.385000     -3.639000
N           2.668000     -9.408000     -2.903000
S           1.231000     -8.980000     -0.819000
C           3.091000     -8.216000     -2.377000
C           2.521000     -7.853000     -1.235000
C          -4.314000    -21.127000      2.959000
H          -3.784000    -21.016000      0.284000
H          -2.605000    -19.253000     -0.972000
H          -1.529000    -17.493000      2.782000
H           0.075000    -17.889000     -1.103000
H           4.284000    -14.014000     -4.588000
H           3.673000    -11.513000     -3.905000
H           3.896000     -7.753000     -2.933000
H           2.840000     -6.939000     -0.752000
H          -3.646000    -21.975000      3.154000
C          -5.607000    -21.662000      2.448000
H          -4.457000    -20.745000      3.978000
H          -5.544000    -21.847000      1.368000
H          -6.328000    -20.856000      2.632000
C          -6.012000    -23.092000      2.990000
H          -5.501000    -23.964000      2.563000
C          -7.534000    -23.296000      2.818000
H          -5.844000    -23.172000      4.072000
H          -7.863000    -23.343000      1.773000
H          -8.055000    -22.377000      3.113000
C          -8.242000    -24.457000      3.618000
H          -7.716000    -25.418000      3.574000
C          -9.631000    -24.735000      3.059000
H          -8.237000    -24.107000      4.658000
H         -10.207000    -23.816000      2.895000
H         -10.103000    -25.440000      3.754000
H          -9.652000    -25.155000      2.046000
C          -4.540000    -14.114000      5.883000
C          -4.659000    -15.180000      4.961000
N          -3.899000    -14.316000      7.064000
C          -4.276000    -16.527000      5.313000
C          -3.385000    -15.592000      7.339000
C          -3.571000    -16.765000      6.555000
C          -2.995000    -18.139000      6.809000
C          -1.570000    -18.317000      6.959000
C          -3.694000    -19.327000      6.719000
N          -0.906000    -19.433000      7.174000
N          -5.014000    -19.474000      6.551000
C          -3.041000    -20.555000      6.919000
C          -1.600000    -20.563000      7.053000
S          -5.362000    -21.048000      6.677000
N          -3.862000    -21.641000      6.759000
C          -0.779000    -21.762000      6.965000
S          -1.429000    -23.318000      6.429000
C           0.537000    -21.988000      7.311000
C           0.025000    -24.267000      6.776000
S           1.677000    -20.841000      7.738000
C           0.951000    -23.323000      7.146000
C           0.376000    -25.615000      6.465000
C           2.822000    -22.196000      7.764000
C           2.332000    -23.410000      7.411000
N          -0.663000    -26.462000      6.513000
S           1.810000    -26.255000      5.684000
C          -0.223000    -27.747000      6.132000
C           1.096000    -27.841000      5.740000
C          -5.100000    -12.739000      5.415000
H          -5.164000    -15.079000      4.005000
H          -4.397000    -17.338000      4.602000
H          -2.820000    -15.675000      8.267000
H          -0.970000    -17.425000      7.137000
H           3.831000    -21.926000      8.046000
H           2.938000    -24.308000      7.368000
H          -0.946000    -28.537000      6.283000
H           1.692000    -28.735000      5.616000
H          -6.138000    -12.895000      5.098000
C          -4.302000    -12.137000      4.239000
H          -5.169000    -11.991000      6.214000
H          -3.967000    -12.830000      3.458000
H          -3.421000    -11.568000      4.561000
C          -5.211000    -11.151000      3.360000
H          -6.048000    -11.730000      2.950000
C          -4.375000    -10.336000      2.342000
H          -5.689000    -10.383000      3.982000
H          -3.571000    -10.932000      1.894000
H          -3.796000     -9.562000      2.863000
C          -5.207000     -9.692000      1.184000
H          -5.747000    -10.489000      0.658000
C          -4.242000     -8.999000      0.225000
H          -5.880000     -8.877000      1.476000
H          -3.393000     -9.675000      0.065000
H          -3.818000     -8.098000      0.686000
H          -4.764000     -8.718000     -0.698000
$end

--------------------------------------------------------------

             Standard Nuclear Orientation (Angstroms)
    I     Atom           X                Y                Z
 ----------------------------------------------------------------
    1      C      -2.1582346461     0.5586021826    -2.3177674814
    2      C      -1.4860083254     0.0860919373    -3.4447745097
    3      N      -1.6217794026     0.3420121608    -1.0690571330
    4      C      -0.2185582286    -0.4677475986    -3.3429657655
    5      C      -0.3514271503    -0.1249276126    -0.9917434649
    6      C       0.4438217861    -0.4597983262    -2.0940159966
    7      C       1.8499246552    -0.8163052317    -1.9535647665
    8      C       2.4689908222    -2.0556631199    -2.2886231282
    9      C       2.7660440928     0.1391542015    -1.4912710854
   10      N       3.7981469949    -2.4268360860    -2.1373039362
   11      N       2.5183117347     1.4253549885    -1.2865121680
   12      C       4.1498680963    -0.1755404119    -1.3635235704
   13      C       4.6424632124    -1.5112742693    -1.6065670102
   14      S       3.9319785117     2.1582484329    -0.9191343749
   15      N       4.9201672008     0.8755668888    -1.0027774933
   16      C       6.0762448562    -1.8636492962    -1.3709379833
   17      S       7.2150814506    -0.8730376474    -0.4979054681
   18      C       6.5323843166    -3.1837562180    -1.5646581624
   19      C       8.3261662123    -2.2879671198    -0.4428941932
   20      S       5.8718940415    -4.6466556630    -2.3603470527
   21      C       7.8147773863    -3.3211302329    -1.0892999871
   22      C       9.4611110658    -2.1791922758     0.4179438942
   23      C       7.4131123015    -5.4445747468    -1.9358586420
   24      C       8.2831196676    -4.6123630783    -1.2454385369
   25      N      10.4034836181    -3.0757961688     0.4044001978
   26      S       9.5294371005    -1.0339941056     1.6921486281
   27      C      11.2188407265    -2.9254604829     1.4948409194
   28      C      10.8798935621    -1.9620121370     2.3420215993
   29      C      -3.5143484775     1.2211960202    -2.4724273758
   30      H      -2.0099837969    -0.0043500729    -4.3917422748
   31      H       0.2884895579    -0.8762860519    -4.2114816689
   32      H       0.0680401576    -0.1904769013     0.0109536321
   33      H       1.8920604222    -2.8997036955    -2.6640972556
   34      H       7.5301002304    -6.4873855463    -2.1976456947
   35      H       9.2430968230    -4.9431781483    -0.8650252739
   36      H      12.0041080546    -3.6674965261     1.5601688168
   37      H      11.4645596073    -1.8186036356     3.2409351755
   38      H      -4.2442968954     0.4066900389    -2.3881165601
   39      C      -3.8959896361     2.0684590497    -3.6367685563
   40      H      -3.7164017565     1.7694789344    -1.5432910465
   41      H      -3.5060939559     1.6369770201    -4.5675739155
   42      H      -3.3985879384     3.0283413849    -3.4508910328
   43      C      -5.4457619087     2.1388693375    -3.9465060169
   44      H      -5.9073713425     1.2764057282    -4.4434036454
   45      C      -5.7453949923     3.3968750817    -4.7922752306
   46      H      -6.0312464834     2.2785027125    -3.0283239362
   47      H      -5.3093257965     3.3730302988    -5.7981331146
   48      H      -5.1790555296     4.2446465266    -4.3878371141
   49      C      -7.2359907935     3.9014235587    -4.9051468033
   50      H      -7.9629082157     3.1092565059    -5.1200780057
   51      C      -7.3871894179     4.9027536715    -6.0424959059
   52      H      -7.4553730041     4.3121880237    -3.9115326931
   53      H      -6.5992456194     5.6658518302    -6.0348297048
   54      H      -8.4026506698     5.3083014207    -5.9576226531
   55      H      -7.2433736956     4.4921221773    -7.0493269811
   56      C       0.9914706586     4.5047087943     2.6946954963
   57      C       0.5237954914     4.0042314532     1.4571966604
   58      N       0.3178071333     4.2079120485     3.8368579832
   59      C      -0.7508257060     3.3345063707     1.3485176977
   60      C      -0.8394731918     3.4199988641     3.7480206997
   61      C      -1.4768648264     2.9864034509     2.5518150645
   62      C      -2.6988678458     2.1053343857     2.4310097544
   63      C      -2.7283826244     0.8072472286     3.0626010863
   64      C      -3.7668256351     2.3328130417     1.5849810190
   65      N      -3.6980652122    -0.0827944766     3.0517179831
   66      N      -3.9916967872     3.4278383346     0.8483769375
   67      C      -4.8263238530     1.4127855400     1.5114560399
   68      C      -4.7002466392     0.1494984686     2.2062303279
   69      S      -5.4489547133     3.2794491890     0.1636609393
   70      N      -5.7890122579     1.7621919275     0.6003121372
   71      C      -5.5678140458    -0.9971481456     1.9783831484
   72      S      -6.7209472037    -1.0610701904     0.6378124146
   73      C      -5.7513797851    -2.1547835416     2.7055914468
   74      C      -7.5041772025    -2.5722033849     1.1258218788
   75      S      -4.8256292616    -2.6945037377     3.9898134207
   76      C      -6.7532416099    -2.9999275115     2.1929019167
   77      C      -8.4529787588    -3.4073520362     0.4630033991
   78      C      -5.8386069274    -4.1495591207     3.9233598216
   79      C      -6.7684688390    -4.1958153472     2.9376001212
   80      N      -9.3453876758    -2.7246305848    -0.2696163828
   81      S      -8.4113874665    -5.1324637015     0.1496714557
   82      C     -10.1930104312    -3.6405675039    -0.9273254558
   83      C      -9.8947061119    -4.9749627844    -0.7465914841
   84      C       2.3234227500     5.3090510047     2.6479383066
   85      H       1.0175769251     4.2121363701     0.5126769722
   86      H      -1.1060813147     2.9784383373     0.3868046385
   87      H      -1.2955566432     3.1554834577     4.7016020990
   88      H      -1.9712393879     0.6009488663     3.8185925579
   89      H      -5.6086107419    -4.8916630009     4.6762798610
   90      H      -7.4309141153    -5.0398790853     2.7819991512
   91      H     -11.0442898533    -3.1947036573    -1.4234693620
   92      H     -10.5146647664    -5.8324349466    -0.9706913674
   93      H       2.2043760926     6.1032312353     1.9013630227
   94      C       3.5362285946     4.4360196278     2.2618007685
   95      H       2.5545032138     5.8422876542     3.5779525510
   96      H       3.3800834945     3.6855285644     1.4776981787
   97      H       3.9841989230     3.9159170707     3.1176172880
   98      C       4.6923714093     5.3115846003     1.5778140940
   99      H       4.2858997587     5.7630762123     0.6641149523
  100      C       6.0136951066     4.5180513025     1.4233680125
  101      H       4.9722314282     6.1683461405     2.2045756381
  102      H       5.8392398205     3.4726554658     1.1422116542
  103      H       6.4957139085     4.3936256953     2.4021091136
  104      C       7.0273781709     5.1340613437     0.4031218294
  105      H       6.5335956497     5.2145470345    -0.5731905568
  106      C       8.2327930141     4.2027242455     0.2994817531
  107      H       7.4851964091     6.0850938836     0.7003718399
  108      H       7.8523314074     3.1756215093     0.2387698512
  109      H       8.8318903133     4.2408507166     1.2180277772
  110      H       8.8616704768     4.4927066277    -0.5512810545
 ----------------------------------------------------------------

   10   -5663.5061525677      3.66E-06 Convergence criterion met
 Total energy in the final basis set = -5663.5061525677

                    Orbital Energies (a.u.)
 --------------------------------------------------------------

 Alpha MOs
 -- Occupied --
-88.988 -88.987 -88.929 -88.927 -88.926 -88.914 -88.912 -88.907
-14.388 -14.382 -14.376 -14.369 -14.355 -14.347 -14.342 -14.336
-14.336 -14.330 -10.267 -10.266 -10.264 -10.261 -10.256 -10.253
-10.253 -10.247 -10.246 -10.245 -10.237 -10.236 -10.235 -10.234
-10.233 -10.232 -10.232 -10.231 -10.230 -10.229 -10.227 -10.227
-10.226 -10.224 -10.222 -10.221 -10.220 -10.219 -10.216 -10.213
-10.212 -10.209 -10.202 -10.200 -10.197 -10.196 -10.195 -10.194
-10.193 -10.190 -10.189 -10.188 -10.186 -10.183 -10.183 -10.182
-10.181 -10.178 -10.173 -10.170  -8.044  -8.042  -7.990  -7.989
 -7.985  -7.973  -7.971  -7.968  -6.009  -6.007  -6.003  -6.001
 -6.001  -6.000  -5.954  -5.953  -5.951  -5.949  -5.949  -5.947
 -5.946  -5.946  -5.942  -5.938  -5.936  -5.934  -5.932  -5.932
 -5.929  -5.929  -5.928  -5.925  -1.040  -1.037  -0.980  -0.967
 -0.958  -0.949  -0.934  -0.919  -0.917  -0.914  -0.907  -0.897
 -0.846  -0.845  -0.836  -0.828  -0.811  -0.807  -0.807  -0.805
 -0.804  -0.801  -0.798  -0.789  -0.786  -0.778  -0.771  -0.760
 -0.757  -0.748  -0.746  -0.742  -0.727  -0.715  -0.713  -0.710
 -0.699  -0.695  -0.676  -0.675  -0.655  -0.647  -0.641  -0.641
 -0.635  -0.629  -0.628  -0.618  -0.615  -0.604  -0.599  -0.595
 -0.594  -0.588  -0.588  -0.581  -0.580  -0.578  -0.578  -0.571
 -0.559  -0.542  -0.539  -0.538  -0.523  -0.519  -0.514  -0.512
 -0.510  -0.499  -0.496  -0.495  -0.493  -0.482  -0.478  -0.476
 -0.474  -0.471  -0.470  -0.468  -0.467  -0.461  -0.450  -0.447
 -0.444  -0.443  -0.440  -0.438  -0.435  -0.434  -0.432  -0.431
 -0.431  -0.430  -0.425  -0.422  -0.418  -0.415  -0.415  -0.412
 -0.411  -0.405  -0.403  -0.400  -0.399  -0.397  -0.397  -0.394
 -0.393  -0.391  -0.390  -0.390  -0.387  -0.386  -0.383  -0.381
 -0.380  -0.379  -0.376  -0.370  -0.367  -0.360  -0.358  -0.357
 -0.354  -0.353  -0.352  -0.348  -0.347  -0.342  -0.341  -0.338
 -0.337  -0.337  -0.335  -0.333  -0.331  -0.329  -0.324  -0.323
 -0.317  -0.317  -0.309  -0.306  -0.304  -0.303  -0.300  -0.296
 -0.294  -0.293  -0.289  -0.289  -0.286  -0.282  -0.281  -0.279
 -0.279  -0.268  -0.267  -0.261  -0.256  -0.255  -0.255  -0.249
 -0.244  -0.238  -0.236  -0.231  -0.198  -0.195

          Ground-State Mulliken Net Atomic Charges

     Atom                 Charge (a.u.)
  ----------------------------------------
      1 C                     0.275546
      2 C                    -0.110890
      3 N                    -0.500392
      4 C                    -0.067191
      5 C                     0.094020
      6 C                     0.038131
      7 C                     0.004603
      8 C                     0.044243
      9 C                     0.253941
     10 N                    -0.529121
     11 N                    -0.556698
     12 C                     0.181144
     13 C                     0.329896
     14 S                     0.603931
     15 N                    -0.564583
     16 C                    -0.234466
     17 S                     0.321911
     18 C                    -0.120708
     19 C                    -0.243727
     20 S                     0.283977
     21 C                     0.209546
     22 C                     0.064182
     23 C                    -0.318474
     24 C                    -0.052684
     25 N                    -0.434815
     26 S                     0.265293
     27 C                     0.126371
     28 C                    -0.306427
     29 C                    -0.255181
     30 H                     0.092496
     31 H                     0.100654
     32 H                     0.110064
     33 H                     0.114505
     34 H                     0.132076
     35 H                     0.126105
     36 H                     0.111548
     37 H                     0.129890
     38 H                     0.132147
     39 C                    -0.178964
     40 H                     0.117895
     41 H                     0.099912
     42 H                     0.107473
     43 C                    -0.194235
     44 H                     0.104154
     45 C                    -0.184923
     46 H                     0.101079
     47 H                     0.086537
     48 H                     0.091503
     49 C                    -0.174800
     50 H                     0.094925
     51 C                    -0.319492
     52 H                     0.096538
     53 H                     0.100248
     54 H                     0.101621
     55 H                     0.105044
     56 C                     0.280324
     57 C                    -0.116992
     58 N                    -0.495328
     59 C                    -0.072150
     60 C                     0.051967
     61 C                     0.041137
     62 C                     0.012174
     63 C                     0.068178
     64 C                     0.266610
     65 N                    -0.497718
     66 N                    -0.568671
     67 C                     0.181553
     68 C                     0.308131
     69 S                     0.620243
     70 N                    -0.548723
     71 C                    -0.232931
     72 S                     0.336847
     73 C                    -0.092127
     74 C                    -0.190899
     75 S                     0.289253
     76 C                     0.116058
     77 C                     0.022802
     78 C                    -0.310755
     79 C                    -0.072262
     80 N                    -0.416272
     81 S                     0.277969
     82 C                     0.112947
     83 C                    -0.306989
     84 C                    -0.226556
     85 H                     0.088884
     86 H                     0.125290
     87 H                     0.102228
     88 H                     0.103448
     89 H                     0.117903
     90 H                     0.113484
     91 H                     0.115352
     92 H                     0.141190
     93 H                     0.110466
     94 C                    -0.189025
     95 H                     0.118613
     96 H                     0.103503
     97 H                     0.107675
     98 C                    -0.189468
     99 H                     0.089288
    100 C                    -0.188021
    101 H                     0.096381
    102 H                     0.090472
    103 H                     0.095816
    104 C                    -0.175709
    105 H                     0.094297
    106 C                    -0.319675
    107 H                     0.098233
    108 H                     0.105762
    109 H                     0.101510
    110 H                     0.098904
  ----------------------------------------
  Sum of atomic charges =     0.000000

                    Cartesian Multipole Moments
 -----------------------------------------------------------------
    Charge (ESU x 10^10)
                 0.0000
    Dipole Moment (Debye)
         X       0.7941      Y      -2.4007      Z      -2.2218
       Tot       3.3661
    Quadrupole Moments (Debye-Ang)
        XX    -403.9218     XY      19.3014     YY    -420.0281
        XZ      31.7408     YZ     -12.4060     ZZ    -439.6535

 Total job time:  102.90s(wall), 1125.74s(cpu)
        *  Thank you very much for using Q-Chem.  Have a nice day.  *
