 Q-Chem 4.4, Q-Chem, Inc., Pleasanton, CA (2016)
 Q-Chem 4.4.2 for Intel X86 Linux

User input:
--------------------------------------------------------------
$comment
SP
$end

$rem
MEM_STATIC 5000
MEM_TOTAL 20000
JOBTYPE SP
EXCHANGE B3LYP
BASIS 6-31g(d,p)
$end

$molecule
0 1
C          -6.486000    -23.609000      8.629000
C          -5.616000    -24.519000      7.987000
N          -5.971000    -22.655000      9.493000
C          -4.281000    -24.603000      8.316000
C          -4.662000    -22.685000      9.838000
C          -3.772000    -23.689000      9.290000
C          -2.305000    -23.704000      9.706000
C          -1.543000    -24.914000      9.633000
C          -1.607000    -22.532000     10.074000
N          -0.256000    -24.930000      9.924000
N          -2.166000    -21.276000     10.171000
C          -0.247000    -22.626000     10.340000
C           0.417000    -23.854000     10.343000
S          -0.842000    -20.313000     10.480000
N           0.308000    -21.483000     10.718000
C           1.938000    -24.020000     10.544000
S           3.097000    -22.736000     10.922000
C           2.524000    -25.316000     10.633000
C           4.386000    -23.879000     10.927000
S           1.896000    -27.003000     10.342000
C           3.864000    -25.162000     10.883000
C           5.624000    -23.574000     11.461000
C           3.563000    -27.469000     10.803000
C           4.439000    -26.448000     10.959000
N           5.978000    -22.312000     11.403000
S           6.637000    -24.622000     12.475000
C           7.126000    -22.086000     12.063000
C           7.592000    -23.185000     12.702000
C          -7.906000    -23.552000      8.105000
H          -6.018000    -25.217000      7.259000
H          -3.649000    -25.367000      7.873000
H          -4.416000    -22.000000     10.648000
H          -1.896000    -25.894000      9.317000
H           3.735000    -28.537000     10.842000
H           5.494000    -26.629000     11.129000
H           7.561000    -21.095000     12.043000
H           8.534000    -23.286000     13.225000
H          -8.292000    -22.528000      8.171000
C          -8.897000    -24.492000      8.768000
H          -7.691000    -23.667000      7.035000
H          -9.898000    -24.412000      8.326000
H          -8.949000    -24.200000      9.825000
C          -8.429000    -26.005000      8.703000
H          -7.503000    -26.046000      9.290000
C          -8.359000    -26.643000      7.295000
H          -9.060000    -26.689000      9.283000
H          -8.053000    -25.902000      6.546000
H          -9.406000    -26.886000      7.076000
C          -7.538000    -28.020000      7.162000
H          -6.447000    -28.046000      7.056000
C          -8.139000    -28.735000      5.940000
H          -7.759000    -28.701000      7.994000
H          -7.491000    -29.576000      5.664000
H          -8.360000    -28.048000      5.114000
H          -9.097000    -29.215000      6.173000
C          -4.540000    -14.114000      5.883000
C          -4.659000    -15.180000      4.961000
N          -3.899000    -14.316000      7.064000
C          -4.276000    -16.527000      5.313000
C          -3.385000    -15.592000      7.339000
C          -3.571000    -16.765000      6.555000
C          -2.995000    -18.139000      6.809000
C          -1.570000    -18.317000      6.959000
C          -3.694000    -19.327000      6.719000
N          -0.906000    -19.433000      7.174000
N          -5.014000    -19.474000      6.551000
C          -3.041000    -20.555000      6.919000
C          -1.600000    -20.563000      7.053000
S          -5.362000    -21.048000      6.677000
N          -3.862000    -21.641000      6.759000
C          -0.779000    -21.762000      6.965000
S          -1.429000    -23.318000      6.429000
C           0.537000    -21.988000      7.311000
C           0.025000    -24.267000      6.776000
S           1.677000    -20.841000      7.738000
C           0.951000    -23.323000      7.146000
C           0.376000    -25.615000      6.465000
C           2.822000    -22.196000      7.764000
C           2.332000    -23.410000      7.411000
N          -0.663000    -26.462000      6.513000
S           1.810000    -26.255000      5.684000
C          -0.223000    -27.747000      6.132000
C           1.096000    -27.841000      5.740000
C          -5.100000    -12.739000      5.415000
H          -5.164000    -15.079000      4.005000
H          -4.397000    -17.338000      4.602000
H          -2.820000    -15.675000      8.267000
H          -0.970000    -17.425000      7.137000
H           3.831000    -21.926000      8.046000
H           2.938000    -24.308000      7.368000
H          -0.946000    -28.537000      6.283000
H           1.692000    -28.735000      5.616000
H          -6.138000    -12.895000      5.098000
C          -4.302000    -12.137000      4.239000
H          -5.169000    -11.991000      6.214000
H          -3.967000    -12.830000      3.458000
H          -3.421000    -11.568000      4.561000
C          -5.211000    -11.151000      3.360000
H          -6.048000    -11.730000      2.950000
C          -4.375000    -10.336000      2.342000
H          -5.689000    -10.383000      3.982000
H          -3.571000    -10.932000      1.894000
H          -3.796000     -9.562000      2.863000
C          -5.207000     -9.692000      1.184000
H          -5.747000    -10.489000      0.658000
C          -4.242000     -8.999000      0.225000
H          -5.880000     -8.877000      1.476000
H          -3.393000     -9.675000      0.065000
H          -3.818000     -8.098000      0.686000
H          -4.764000     -8.718000     -0.698000
$end

--------------------------------------------------------------

             Standard Nuclear Orientation (Angstroms)
    I     Atom           X                Y                Z
 ----------------------------------------------------------------
    1      C      -1.0641321483     5.1390479732    -1.6667003375
    2      C      -0.1653605877     5.0441546695    -0.5802524820
    3      N      -1.1846962475     4.0827931873    -2.5564346379
    4      C       0.7251253199     3.9997192321    -0.4631565153
    5      C      -0.3426470727     3.0254981109    -2.4758970164
    6      C       0.6742608213     2.9623426867    -1.4452032076
    7      C       1.6151509034     1.7637261134    -1.3867723628
    8      C       2.9047851938     1.8833929784    -0.7763657455
    9      C       1.2334667038     0.4754677306    -1.8237157355
   10      N       3.7038227882     0.8400967753    -0.6564576338
   11      N       0.0245753558     0.1642577031    -2.4078013692
   12      C       2.1203152166    -0.5773707633    -1.6387216244
   13      C       3.4016023509    -0.3755086181    -1.1225395310
   14      S       0.1068328504    -1.4937362270    -2.5496316628
   15      N       1.6895603387    -1.7351145412    -2.1198012229
   16      C       4.4023798348    -1.5081435830    -0.8111226659
   17      S       4.1811499657    -3.2319309837    -1.1494055984
   18      C       5.7276168384    -1.2111282468    -0.3793104677
   19      C       5.7262480362    -3.5796666462    -0.4713592418
   20      S       6.5666424608     0.3214305444     0.1425454095
   21      C       6.4095565809    -2.3944191561    -0.2504818553
   22      C       6.3497914173    -4.7967530898    -0.6731493325
   23      C       7.9720678714    -0.7719387411     0.3371964327
   24      C       7.7164173565    -2.0934340213     0.1873764115
   25      N       5.5549833078    -5.8263737612    -0.8448622971
   26      S       8.0678008203    -5.0703349385    -1.0284881330
   27      C       6.2399849893    -6.9357206727    -1.1684393762
   28      C       7.5652033153    -6.7091428942    -1.3288666145
   29      C      -2.0539796985     6.2846986167    -1.6229804281
   30      H      -0.1273713386     5.8455761582     0.1512339597
   31      H       1.4651922991     3.9900762247     0.3315615974
   32      H      -0.4208590848     2.3490436586    -3.3256812567
   33      H       3.3416239664     2.7772792579    -0.3347729397
   34      H       8.8879535351    -0.2760256341     0.6320737655
   35      H       8.4723807537    -2.8425089823     0.3925398704
   36      H       5.7080101875    -7.8718077290    -1.2800181969
   37      H       8.3375463861    -7.4470308256    -1.5023646887
   38      H      -3.0080721050     5.9764763058    -2.0664155269
   39      C      -1.6037891379     7.5770613662    -2.2805342151
   40      H      -2.2672375079     6.2765536918    -0.5465024827
   41      H      -2.3598315136     8.3673673589    -2.1934631864
   42      H      -1.4444787464     7.3507757711    -3.3429051619
   43      C      -0.2351527699     8.1112484042    -1.6856420395
   44      H       0.5079775680     7.3446881492    -1.9383645676
   45      C      -0.2579485197     8.5605408900    -0.2050932844
   46      H       0.1773371731     8.9710892394    -2.2268839310
   47      H      -0.9493029558     7.9410589963     0.3797051656
   48      H      -0.7067998894     9.5603202187    -0.2519200053
   49      C       1.1661991352     8.7379932371     0.5216619161
   50      H       1.7167848241     7.8922681154     0.9503779267
   51      C       0.9220165681     9.7521533088     1.6519557819
   52      H       1.8886120983     9.2465196998    -0.1297568028
   53      H       1.7934117779     9.7608338141     2.3182560425
   54      H      -0.0342832763     9.5922360586     2.1647940415
   55      H       0.8742685027    10.7821063229     1.2786329845
   56      C      -8.3120481162    -1.8302923309    -1.0515037443
   57      C      -7.9213269708    -1.0181419029     0.0386107767
   58      N      -7.3666746450    -2.3261194107    -1.8922596582
   59      C      -6.5621991628    -0.5520507678     0.1819029797
   60      C      -6.0225211292    -2.0000619767    -1.6578777569
   61      C      -5.5323993782    -1.0828995120    -0.6863970918
   62      C      -4.0894739257    -0.7460391278    -0.3886401104
   63      C      -3.1495967605    -1.7903904947    -0.0558186315
   64      C      -3.5888061451     0.5279049397    -0.2030510849
   65      N      -1.8714510507    -1.6740885236     0.2364045639
   66      N      -4.2339093232     1.6837923049    -0.4030493066
   67      C      -2.2372033142     0.7210774544     0.1289838035
   68      C      -1.4241605745    -0.4359591794     0.4367641333
   69      S      -3.1728674782     2.8885766759    -0.2103297635
   70      N      -1.9049332744     2.0377832643     0.3158512183
   71      C      -0.1177473678    -0.3686015551     1.0756173902
   72      S       0.5156926952     1.1251488332     1.7815886813
   73      C       0.8771331021    -1.3147370002     1.2086157744
   74      C       2.1320872572     0.4997757706     2.1439464503
   75      S       0.7688607697    -2.9460422649     0.8555460428
   76      C       2.0437354201    -0.8346955490     1.8326712501
   77      C       3.2191547530     1.0507862783     2.8867099926
   78      C       2.4075208438    -3.0543555585     1.5269530670
   79      C       2.9358902722    -1.9083761138     2.0229992941
   80      N       3.3360849651     2.3805475918     2.7551950706
   81      S       4.1548870340     0.3571983582     4.1979147422
   82      C       4.3949420922     2.8291886373     3.5722194256
   83      C       5.0061853638     1.8674121167     4.3491548074
   84      C      -9.8299931997    -2.1615418354    -1.1482792017
   85      H      -8.6318639686    -0.5905883177     0.7396793230
   86      H      -6.2845999020     0.0909827906     1.0109563515
   87      H      -5.3050151210    -2.4837427720    -2.3200982765
   88      H      -3.4434817899    -2.8166913029    -0.2741904259
   89      H       2.8402923036    -4.0454913679     1.4975647889
   90      H       3.9185239507    -1.8528618464     2.4777939950
   91      H       4.6739977372     3.8636704999     3.4252322736
   92      H       5.9492599193     1.9357041910     4.8742972406
   93      H     -10.3780135104    -1.2121151751    -1.1252193722
   94      C     -10.3228893755    -3.0529233097     0.0113226382
   95      H     -10.1253640769    -2.6232035550    -2.0981689329
   96      H      -9.9229063660    -2.8379118380     1.0094301771
   97      H     -10.1687140960    -4.1236932980    -0.1711263006
   98      C     -11.8871944934    -2.8373463173     0.2898797393
   99      H     -12.0447042916    -1.7879247521     0.5688332159
  100      C     -12.4608365373    -3.9000294700     1.2599747462
  101      H     -12.4804580097    -2.9688519493    -0.6244159837
  102      H     -11.7600789832    -4.1466295393     2.0664877691
  103      H     -12.5436926185    -4.8696464208     0.7513139176
  104      C     -13.8329355471    -3.5172963240     1.9071096983
  105      H     -13.7141123117    -2.5646480378     2.4379837716
  106      C     -14.2235780837    -4.6154300248     2.8933428268
  107      H     -14.6915183184    -3.4919469915     1.2254858753
  108      H     -13.3272865831    -4.8757892944     3.4697555233
  109      H     -14.5072416379    -5.5317401217     2.3604180720
  110      H     -15.0669116191    -4.2845332600     3.5119459945
 ----------------------------------------------------------------

   10   -5663.4678195127      5.37E-06 Convergence criterion met
 Total energy in the final basis set = -5663.4678195127

                    Orbital Energies (a.u.)
 --------------------------------------------------------------

 Alpha MOs
 -- Occupied --
-88.984 -88.980 -88.930 -88.925 -88.922 -88.914 -88.913 -88.906
-14.380 -14.380 -14.378 -14.367 -14.348 -14.345 -14.340 -14.333
-14.333 -14.328 -10.268 -10.262 -10.258 -10.256 -10.251 -10.249
-10.246 -10.243 -10.243 -10.236 -10.235 -10.235 -10.234 -10.232
-10.232 -10.231 -10.230 -10.230 -10.229 -10.224 -10.224 -10.224
-10.223 -10.222 -10.222 -10.221 -10.221 -10.220 -10.217 -10.216
-10.214 -10.206 -10.201 -10.201 -10.199 -10.199 -10.193 -10.192
-10.192 -10.189 -10.188 -10.188 -10.188 -10.187 -10.181 -10.180
-10.179 -10.179 -10.173 -10.170  -8.039  -8.035  -7.991  -7.986
 -7.980  -7.972  -7.972  -7.967  -6.004  -6.000  -5.999  -5.997
 -5.995  -5.993  -5.955  -5.951  -5.950  -5.947  -5.947  -5.944
 -5.943  -5.941  -5.937  -5.937  -5.936  -5.934  -5.932  -5.931
 -5.929  -5.928  -5.927  -5.923  -1.034  -1.026  -0.976  -0.969
 -0.960  -0.956  -0.922  -0.918  -0.916  -0.911  -0.896  -0.895
 -0.846  -0.844  -0.829  -0.820  -0.808  -0.808  -0.805  -0.804
 -0.800  -0.800  -0.791  -0.790  -0.780  -0.778  -0.765  -0.762
 -0.749  -0.746  -0.742  -0.738  -0.724  -0.713  -0.710  -0.709
 -0.695  -0.690  -0.675  -0.673  -0.653  -0.646  -0.641  -0.636
 -0.629  -0.628  -0.621  -0.616  -0.611  -0.605  -0.601  -0.595
 -0.593  -0.587  -0.587  -0.580  -0.576  -0.573  -0.571  -0.564
 -0.542  -0.540  -0.540  -0.535  -0.523  -0.522  -0.515  -0.512
 -0.499  -0.497  -0.497  -0.492  -0.483  -0.480  -0.479  -0.476
 -0.471  -0.468  -0.468  -0.467  -0.462  -0.461  -0.449  -0.447
 -0.444  -0.440  -0.439  -0.435  -0.433  -0.431  -0.430  -0.430
 -0.428  -0.424  -0.422  -0.418  -0.415  -0.413  -0.410  -0.406
 -0.405  -0.403  -0.401  -0.399  -0.398  -0.395  -0.394  -0.392
 -0.391  -0.389  -0.387  -0.386  -0.385  -0.384  -0.383  -0.381
 -0.377  -0.376  -0.376  -0.368  -0.364  -0.360  -0.358  -0.357
 -0.353  -0.351  -0.351  -0.349  -0.346  -0.345  -0.341  -0.335
 -0.333  -0.332  -0.332  -0.331  -0.329  -0.324  -0.323  -0.321
 -0.320  -0.314  -0.309  -0.307  -0.302  -0.301  -0.298  -0.296
 -0.292  -0.292  -0.290  -0.287  -0.282  -0.281  -0.280  -0.279
 -0.270  -0.266  -0.262  -0.257  -0.255  -0.254  -0.246  -0.245
 -0.242  -0.238  -0.228  -0.223  -0.195  -0.189

          Ground-State Mulliken Net Atomic Charges

     Atom                 Charge (a.u.)
  ----------------------------------------
      1 C                     0.242947
      2 C                    -0.117182
      3 N                    -0.493274
      4 C                    -0.054692
      5 C                     0.079866
      6 C                     0.038292
      7 C                     0.000068
      8 C                     0.072442
      9 C                     0.262121
     10 N                    -0.505437
     11 N                    -0.581761
     12 C                     0.220596
     13 C                     0.299698
     14 S                     0.605457
     15 N                    -0.564312
     16 C                    -0.234596
     17 S                     0.375221
     18 C                    -0.121989
     19 C                    -0.201362
     20 S                     0.275983
     21 C                     0.127902
     22 C                     0.070137
     23 C                    -0.308813
     24 C                    -0.079270
     25 N                    -0.441997
     26 S                     0.263404
     27 C                     0.137233
     28 C                    -0.315634
     29 C                    -0.225378
     30 H                     0.096037
     31 H                     0.122867
     32 H                     0.129716
     33 H                     0.124527
     34 H                     0.124224
     35 H                     0.106102
     36 H                     0.114311
     37 H                     0.124228
     38 H                     0.114450
     39 C                    -0.183380
     40 H                     0.105275
     41 H                     0.095857
     42 H                     0.113264
     43 C                    -0.196673
     44 H                     0.101290
     45 C                    -0.176830
     46 H                     0.088377
     47 H                     0.092495
     48 H                     0.100036
     49 C                    -0.182537
     50 H                     0.100412
     51 C                    -0.322620
     52 H                     0.099446
     53 H                     0.093372
     54 H                     0.104497
     55 H                     0.103350
     56 C                     0.281505
     57 C                    -0.114039
     58 N                    -0.493414
     59 C                    -0.066422
     60 C                     0.053128
     61 C                     0.051476
     62 C                     0.006570
     63 C                     0.052480
     64 C                     0.237069
     65 N                    -0.498414
     66 N                    -0.558224
     67 C                     0.206702
     68 C                     0.291847
     69 S                     0.634704
     70 N                    -0.556410
     71 C                    -0.231404
     72 S                     0.329688
     73 C                    -0.112059
     74 C                    -0.200693
     75 S                     0.289171
     76 C                     0.122269
     77 C                     0.043163
     78 C                    -0.308666
     79 C                    -0.073026
     80 N                    -0.436496
     81 S                     0.287932
     82 C                     0.115948
     83 C                    -0.306066
     84 C                    -0.227790
     85 H                     0.088142
     86 H                     0.105604
     87 H                     0.102912
     88 H                     0.103487
     89 H                     0.133490
     90 H                     0.119841
     91 H                     0.111701
     92 H                     0.140873
     93 H                     0.111496
     94 C                    -0.184413
     95 H                     0.119289
     96 H                     0.104307
     97 H                     0.107158
     98 C                    -0.188354
     99 H                     0.090233
    100 C                    -0.182216
    101 H                     0.094659
    102 H                     0.088521
    103 H                     0.094455
    104 C                    -0.174315
    105 H                     0.095374
    106 C                    -0.316221
    107 H                     0.096911
    108 H                     0.098882
    109 H                     0.102165
    110 H                     0.097723
  ----------------------------------------
  Sum of atomic charges =     0.000000

                    Cartesian Multipole Moments
 -----------------------------------------------------------------
    Charge (ESU x 10^10)
                 0.0000
    Dipole Moment (Debye)
         X       3.5046      Y       1.1932      Z       3.6378
       Tot       5.1903
    Quadrupole Moments (Debye-Ang)
        XX    -391.4799     XY     -10.7197     YY    -414.3212
        XZ       0.8162     YZ       7.3371     ZZ    -451.5039

 Total job time:  128.31s(wall), 1351.96s(cpu)
        *  Thank you very much for using Q-Chem.  Have a nice day.  *
