 Q-Chem 4.4, Q-Chem, Inc., Pleasanton, CA (2016)
 Q-Chem 4.4.2 for Intel X86 Linux

User input:
--------------------------------------------------------------
$comment
SP
$end

$rem
MEM_STATIC 5000
MEM_TOTAL 20000
JOBTYPE SP
EXCHANGE B3LYP
BASIS 6-31g(d,p)
$end

$molecule
0 1
C           3.222000    -30.786000      0.071000
C           2.397000    -30.265000      1.070000
N           4.333000    -30.155000     -0.363000
C           2.701000    -29.019000      1.605000
C           4.670000    -28.981000      0.146000
C           3.871000    -28.309000      1.099000
C           4.304000    -27.040000      1.741000
C           3.287000    -26.148000      2.256000
C           5.636000    -26.513000      1.799000
N           3.560000    -24.872000      2.701000
N           6.739000    -27.262000      1.481000
C           5.869000    -25.236000      2.359000
C           4.802000    -24.405000      2.744000
S           8.010000    -26.377000      1.957000
N           7.193000    -25.064000      2.582000
C           5.022000    -23.025000      3.305000
S           6.603000    -22.239000      3.416000
C           4.030000    -22.145000      3.515000
C           5.828000    -20.694000      3.646000
S           2.293000    -22.346000      3.285000
C           4.475000    -20.864000      3.877000
C           6.368000    -19.477000      4.025000
C           2.140000    -20.772000      4.135000
C           3.360000    -20.058000      4.275000
N           7.536000    -19.246000      3.468000
S           6.108000    -18.722000      5.582000
C           8.159000    -18.248000      4.127000
C           7.465000    -17.754000      5.236000
C           2.746000    -32.044000     -0.635000
H           1.436000    -30.669000      1.374000
H           2.027000    -28.457000      2.245000
H           5.517000    -28.454000     -0.290000
H           2.236000    -26.416000      2.158000
H           1.180000    -20.313000      4.331000
H           3.489000    -19.020000      4.559000
H           9.105000    -17.915000      3.720000
H           7.789000    -16.925000      5.852000
H           1.722000    -32.286000     -0.325000
C           3.588000    -33.285000     -0.253000
H           2.744000    -31.860000     -1.716000
H           3.396000    -33.297000      0.827000
H           4.639000    -32.993000     -0.370000
C           3.065000    -34.529000     -0.982000
H           1.970000    -34.582000     -1.025000
C           3.708000    -35.770000     -0.391000
H           3.310000    -34.516000     -2.051000
H           3.572000    -35.783000      0.698000
H           4.791000    -35.764000     -0.565000
C           3.150000    -36.971000     -1.119000
H           2.058000    -36.872000     -1.102000
C           3.585000    -38.232000     -0.403000
H           3.410000    -36.922000     -2.183000
H           3.374000    -38.403000      0.659000
H           4.677000    -38.290000     -0.496000
H           3.151000    -39.064000     -0.970000
C          -4.540000    -14.114000      5.883000
C          -4.659000    -15.180000      4.961000
N          -3.899000    -14.316000      7.064000
C          -4.276000    -16.527000      5.313000
C          -3.385000    -15.592000      7.339000
C          -3.571000    -16.765000      6.555000
C          -2.995000    -18.139000      6.809000
C          -1.570000    -18.317000      6.959000
C          -3.694000    -19.327000      6.719000
N          -0.906000    -19.433000      7.174000
N          -5.014000    -19.474000      6.551000
C          -3.041000    -20.555000      6.919000
C          -1.600000    -20.563000      7.053000
S          -5.362000    -21.048000      6.677000
N          -3.862000    -21.641000      6.759000
C          -0.779000    -21.762000      6.965000
S          -1.429000    -23.318000      6.429000
C           0.537000    -21.988000      7.311000
C           0.025000    -24.267000      6.776000
S           1.677000    -20.841000      7.738000
C           0.951000    -23.323000      7.146000
C           0.376000    -25.615000      6.465000
C           2.822000    -22.196000      7.764000
C           2.332000    -23.410000      7.411000
N          -0.663000    -26.462000      6.513000
S           1.810000    -26.255000      5.684000
C          -0.223000    -27.747000      6.132000
C           1.096000    -27.841000      5.740000
C          -5.100000    -12.739000      5.415000
H          -5.164000    -15.079000      4.005000
H          -4.397000    -17.338000      4.602000
H          -2.820000    -15.675000      8.267000
H          -0.970000    -17.425000      7.137000
H           3.831000    -21.926000      8.046000
H           2.938000    -24.308000      7.368000
H          -0.946000    -28.537000      6.283000
H           1.692000    -28.735000      5.616000
H          -6.138000    -12.895000      5.098000
C          -4.302000    -12.137000      4.239000
H          -5.169000    -11.991000      6.214000
H          -3.967000    -12.830000      3.458000
H          -3.421000    -11.568000      4.561000
C          -5.211000    -11.151000      3.360000
H          -6.048000    -11.730000      2.950000
C          -4.375000    -10.336000      2.342000
H          -5.689000    -10.383000      3.982000
H          -3.571000    -10.932000      1.894000
H          -3.796000     -9.562000      2.863000
C          -5.207000     -9.692000      1.184000
H          -5.747000    -10.489000      0.658000
C          -4.242000     -8.999000      0.225000
H          -5.880000     -8.877000      1.476000
H          -3.393000     -9.675000      0.065000
H          -3.818000     -8.098000      0.686000
H          -4.764000     -8.718000     -0.698000
$end

--------------------------------------------------------------

             Standard Nuclear Orientation (Angstroms)
    I     Atom           X                Y                Z
 ----------------------------------------------------------------
    1      C       8.8416821281     1.4750234452     2.3515037035
    2      C       7.8283750259     2.0962076392     1.6184239578
    3      N       8.8289998857     0.1583714829     2.6466388774
    4      C       6.7327729451     1.3400565211     1.2196150221
    5      C       7.8163292155    -0.5986037931     2.2562383841
    6      C       6.6895366410    -0.0720513736     1.5844683019
    7      C       5.6033716632    -0.9410659851     1.0599940450
    8      C       4.2860153185    -0.3666475235     0.8873855514
    9      C       5.6680130873    -2.3529448750     0.8197098666
   10      N       3.1703857439    -1.1185947418     0.5862609375
   11      N       6.8515063031    -3.0442206118     0.8050243669
   12      C       4.5105307220    -3.0565349293     0.4149709266
   13      C       3.2546703800    -2.4256487065     0.3694475760
   14      S       6.4841486793    -4.5109200960     0.2227160298
   15      N       4.8515283890    -4.2868021514    -0.0349759073
   16      C       2.0002821643    -3.1626905099    -0.0188829328
   17      S       1.9256109056    -4.9040427803    -0.3218589611
   18      C       0.7690674942    -2.6401372442     0.0977897747
   19      C       0.1888785783    -4.8641956457    -0.1711173634
   20      S       0.2864415576    -1.0297700703     0.6309499481
   21      C      -0.2629128892    -3.5570936690    -0.1556612132
   22      C      -0.7511217627    -5.8358442078    -0.4688226383
   23      C      -1.3544048221    -1.4863244145     0.0630007521
   24      C      -1.5190012473    -2.8709708978    -0.2080308569
   25      N      -0.3593143953    -7.0420002653    -0.1231225492
   26      S      -1.8604447464    -5.7572007837    -1.8197821972
   27      C      -1.1310180602    -7.9596495592    -0.7402183498
   28      C      -2.0903547297    -7.4308490870    -1.6094687251
   29      C       9.9142049696     2.3702393403     2.9480431035
   30      H       7.7288224365     3.1647694642     1.4528404195
   31      H       5.8216599276     1.7676441704     0.8112501465
   32      H       7.7884033596    -1.6345367552     2.5898505012
   33      H       4.1150477366     0.6766073082     1.1489547433
   34      H      -2.1960484960    -0.8093309664     0.1263473963
   35      H      -2.4479057767    -3.4085940877    -0.3591555764
   36      H      -0.9525666971    -8.9954777164    -0.4820146706
   37      H      -2.8251720434    -8.0127643252    -2.1508476784
   38      H       9.6438920369     3.4246294129     2.8122767852
   39      C      11.2776580065     2.2072941355     2.2343108873
   40      H       9.9815015061     2.1678788259     4.0236556724
   41      H      10.9786687337     2.5070846575     1.2223133292
   42      H      11.4733471826     1.1289592148     2.1847776125
   43      C      12.3234672368     3.1356453140     2.8643530629
   44      H      11.9320015156     4.1301518194     3.1121319964
   45      C      13.5608305211     3.1739799663     1.9867007643
   46      H      12.6408840817     2.7894238334     3.8554798121
   47      H      13.2836976994     3.4253134083     0.9548989907
   48      H      14.0355276100     2.1859893270     1.9450093921
   49      C      14.5539684835     4.1147962966     2.6287993706
   50      H      14.0160410364     5.0468448123     2.8396870803
   51      C      15.6972827462     4.3616073284     1.6675924151
   52      H      14.8445104273     3.7399911179     3.6173353876
   53      H      15.5354350808     4.7459859759     0.6538545848
   54      H      16.2151020544     3.4029032217     1.5363422733
   55      H      16.3793015973     5.0484988507     2.1824703844
   56      C     -10.3662706403     1.7496254283     0.6302494526
   57      C      -9.2718956018     2.2177331724     1.3943302172
   58      N     -10.1777466728     1.4016368010    -0.6696769411
   59      C      -7.9956446186     2.5070262537     0.7840065811
   60      C      -8.8944454584     1.5342226660    -1.2206360879
   61      C      -7.7620718403     2.1247323897    -0.5927752312
   62      C      -6.3619867328     2.2426104181    -1.1495826147
   63      C      -5.6535686303     1.0674046757    -1.5988534184
   64      C      -5.5745709386     3.3763035706    -1.0970354658
   65      N      -4.4380440229     0.9892690829    -2.0978241169
   66      N      -5.9478828974     4.5983271833    -0.6976240596
   67      C      -4.2609722136     3.3553619760    -1.5954457782
   68      C      -3.6934044307     2.0895365026    -2.0078214353
   69      S      -4.7207477853     5.6130025884    -0.9787454547
   70      N      -3.5989443611     4.5451043263    -1.4364826929
   71      C      -2.2752104611     1.8732138311    -2.2554428532
   72      S      -1.0458378201     3.0736111785    -1.8328069366
   73      C      -1.6107203043     0.8386120791    -2.8805028871
   74      C       0.3162712865     2.2330621887    -2.5899477276
   75      S      -2.2535843940    -0.6317603035    -3.3519568285
   76      C      -0.2217950157     1.0359536041    -2.9935907520
   77      C       1.7222184364     2.4755899804    -2.5509748891
   78      C      -0.5889257543    -1.0555138041    -3.7958831558
   79      C       0.3632910815    -0.1267851497    -3.5327269587
   80      N       2.0385727407     3.7786583230    -2.5168157204
   81      S       3.0434293466     1.3885585318    -2.1653826688
   82      C       3.4399976678     3.9062283207    -2.4182253082
   83      C       4.1465533503     2.7267847762    -2.3088955637
   84      C     -11.7149020826     1.5926009123     1.3916859465
   85      H      -9.3633672882     2.5144582531     2.4348825499
   86      H      -7.1734686692     2.8892261324     1.3805239413
   87      H      -8.7884192870     1.1729185726    -2.2431407593
   88      H      -6.2376961520     0.1617878497    -1.7601023036
   89      H      -0.4762828639    -2.0411853411    -4.2274711542
   90      H       1.4169190068    -0.2782559324    -3.7386730605
   91      H       3.8129363113     4.9143617526    -2.5374467480
   92      H       5.2098794268     2.5732230459    -2.4337332578
   93      H     -11.9330465167     2.5501500300     1.8793145890
   94      C     -11.6710266723     0.4829441408     2.4635631772
   95      H     -12.5777016360     1.4174554998     0.7377998592
   96      H     -10.7521195278     0.3988968528     3.0559994296
   97      H     -11.8845357491    -0.5151295694     2.0612340296
   98      C     -12.7292827016     0.7606416552     3.6357817008
   99      H     -12.4700794752     1.7138219350     4.1134542263
  100      C     -12.8926492372    -0.4582237098     4.5776540896
  101      H     -13.7391630696     0.9211302426     3.2363107311
  102      H     -11.9393138102    -0.9648682996     4.7694842837
  103      H     -13.4540856537    -1.2542085384     4.0707465015
  104      C     -13.5563072453    -0.1311065616     5.9562317696
  105      H     -12.9574511841     0.6396222175     6.4570646428
  106      C     -13.5713266694    -1.4047500108     6.7981116786
  107      H     -14.6169839722     0.1449235777     5.9217318669
  108      H     -12.5902572304    -1.8835426792     6.6902351910
  109      H     -14.2959619736    -2.1250842160     6.3979613210
  110      H     -13.8364989121    -1.1680124232     7.8359040453
 ----------------------------------------------------------------

   10   -5663.4813609366      3.26E-06 Convergence criterion met
 Total energy in the final basis set = -5663.4813609366

                    Orbital Energies (a.u.)
 --------------------------------------------------------------

 Alpha MOs
 -- Occupied --
-88.991 -88.991 -88.930 -88.930 -88.921 -88.915 -88.911 -88.908
-14.387 -14.387 -14.385 -14.374 -14.355 -14.353 -14.343 -14.338
-14.336 -14.330 -10.268 -10.267 -10.265 -10.261 -10.259 -10.257
-10.253 -10.252 -10.248 -10.241 -10.238 -10.237 -10.235 -10.233
-10.233 -10.233 -10.232 -10.232 -10.231 -10.230 -10.228 -10.227
-10.226 -10.225 -10.225 -10.223 -10.223 -10.220 -10.220 -10.219
-10.218 -10.217 -10.204 -10.203 -10.202 -10.201 -10.201 -10.197
-10.196 -10.189 -10.183 -10.183 -10.182 -10.181 -10.180 -10.178
-10.175 -10.171 -10.171 -10.170  -8.047  -8.046  -7.992  -7.990
 -7.979  -7.974  -7.970  -7.969  -6.012  -6.011  -6.006  -6.006
 -6.005  -6.004  -5.956  -5.955  -5.952  -5.951  -5.949  -5.947
 -5.944  -5.940  -5.938  -5.936  -5.934  -5.934  -5.934  -5.931
 -5.931  -5.930  -5.926  -5.925  -1.042  -1.031  -0.979  -0.974
 -0.959  -0.957  -0.943  -0.920  -0.918  -0.911  -0.902  -0.898
 -0.847  -0.837  -0.834  -0.832  -0.816  -0.814  -0.811  -0.806
 -0.805  -0.802  -0.800  -0.794  -0.792  -0.781  -0.769  -0.765
 -0.750  -0.749  -0.745  -0.737  -0.720  -0.715  -0.712  -0.711
 -0.698  -0.692  -0.679  -0.673  -0.655  -0.651  -0.645  -0.645
 -0.634  -0.632  -0.624  -0.623  -0.611  -0.607  -0.601  -0.596
 -0.592  -0.590  -0.583  -0.582  -0.578  -0.578  -0.574  -0.574
 -0.545  -0.544  -0.542  -0.536  -0.527  -0.523  -0.518  -0.516
 -0.509  -0.503  -0.501  -0.498  -0.486  -0.486  -0.482  -0.477
 -0.474  -0.473  -0.471  -0.471  -0.467  -0.466  -0.448  -0.447
 -0.442  -0.441  -0.440  -0.437  -0.434  -0.433  -0.433  -0.432
 -0.431  -0.427  -0.425  -0.423  -0.420  -0.418  -0.416  -0.415
 -0.411  -0.408  -0.404  -0.403  -0.401  -0.400  -0.400  -0.396
 -0.395  -0.392  -0.390  -0.388  -0.387  -0.385  -0.384  -0.382
 -0.379  -0.376  -0.374  -0.371  -0.365  -0.363  -0.360  -0.358
 -0.355  -0.354  -0.352  -0.351  -0.345  -0.344  -0.343  -0.341
 -0.341  -0.336  -0.333  -0.332  -0.331  -0.327  -0.326  -0.322
 -0.318  -0.316  -0.310  -0.308  -0.305  -0.301  -0.301  -0.298
 -0.297  -0.294  -0.292  -0.289  -0.287  -0.287  -0.284  -0.280
 -0.278  -0.274  -0.269  -0.262  -0.257  -0.250  -0.250  -0.249
 -0.243  -0.241  -0.233  -0.226  -0.198  -0.193

          Ground-State Mulliken Net Atomic Charges

     Atom                 Charge (a.u.)
  ----------------------------------------
      1 C                     0.268789
      2 C                    -0.113521
      3 N                    -0.486721
      4 C                    -0.085034
      5 C                     0.096355
      6 C                     0.019698
      7 C                     0.044540
      8 C                     0.047308
      9 C                     0.181103
     10 N                    -0.537783
     11 N                    -0.542261
     12 C                     0.235989
     13 C                     0.323380
     14 S                     0.611085
     15 N                    -0.577874
     16 C                    -0.223886
     17 S                     0.345882
     18 C                    -0.107200
     19 C                    -0.190934
     20 S                     0.294623
     21 C                     0.126554
     22 C                     0.025918
     23 C                    -0.297194
     24 C                    -0.092012
     25 N                    -0.406541
     26 S                     0.288339
     27 C                     0.111586
     28 C                    -0.308284
     29 C                    -0.227032
     30 H                     0.094686
     31 H                     0.098622
     32 H                     0.117530
     33 H                     0.122705
     34 H                     0.131396
     35 H                     0.111673
     36 H                     0.111524
     37 H                     0.135076
     38 H                     0.092517
     39 C                    -0.177533
     40 H                     0.113283
     41 H                     0.089559
     42 H                     0.119580
     43 C                    -0.177168
     44 H                     0.089932
     45 C                    -0.160094
     46 H                     0.095104
     47 H                     0.090514
     48 H                     0.094491
     49 C                    -0.176607
     50 H                     0.088492
     51 C                    -0.317199
     52 H                     0.096880
     53 H                     0.105988
     54 H                     0.099802
     55 H                     0.093850
     56 C                     0.280916
     57 C                    -0.113475
     58 N                    -0.492906
     59 C                    -0.067148
     60 C                     0.052503
     61 C                     0.049665
     62 C                     0.005824
     63 C                     0.055338
     64 C                     0.242301
     65 N                    -0.495948
     66 N                    -0.554451
     67 C                     0.182870
     68 C                     0.297186
     69 S                     0.616733
     70 N                    -0.538714
     71 C                    -0.241528
     72 S                     0.336366
     73 C                    -0.090097
     74 C                    -0.187637
     75 S                     0.286263
     76 C                     0.120342
     77 C                     0.018306
     78 C                    -0.308598
     79 C                    -0.064673
     80 N                    -0.416421
     81 S                     0.298973
     82 C                     0.111979
     83 C                    -0.319652
     84 C                    -0.227607
     85 H                     0.089173
     86 H                     0.105224
     87 H                     0.104544
     88 H                     0.105218
     89 H                     0.119536
     90 H                     0.115288
     91 H                     0.115038
     92 H                     0.142436
     93 H                     0.111850
     94 C                    -0.185318
     95 H                     0.119656
     96 H                     0.104465
     97 H                     0.107412
     98 C                    -0.188559
     99 H                     0.090422
    100 C                    -0.181914
    101 H                     0.094980
    102 H                     0.088445
    103 H                     0.094462
    104 C                    -0.174095
    105 H                     0.095530
    106 C                    -0.316311
    107 H                     0.097075
    108 H                     0.098970
    109 H                     0.102187
    110 H                     0.098100
  ----------------------------------------
  Sum of atomic charges =     0.000000

                    Cartesian Multipole Moments
 -----------------------------------------------------------------
    Charge (ESU x 10^10)
                 0.0000
    Dipole Moment (Debye)
         X       0.6948      Y       0.2078      Z       0.2754
       Tot       0.7757
    Quadrupole Moments (Debye-Ang)
        XX    -432.7266     XY      20.5144     YY    -423.7292
        XZ     -24.4662     YZ      22.0270     ZZ    -446.3078

 Total job time:  96.65s(wall), 1049.72s(cpu)
        *  Thank you very much for using Q-Chem.  Have a nice day.  *
