 Q-Chem 4.4, Q-Chem, Inc., Pleasanton, CA (2016)
 Q-Chem 4.4.2 for Intel X86 Linux

User input:
--------------------------------------------------------------
$comment
SP
$end

$rem
MEM_STATIC 5000
MEM_TOTAL 20000
JOBTYPE SP
EXCHANGE B3LYP
BASIS 6-31g(d,p)
$end

$molecule
0 1
C         -23.796000     18.906000     -8.901000
C         -22.719000     19.509000     -8.274000
N         -23.974000     17.563000     -8.817000
C         -21.852000     18.711000     -7.506000
C         -23.120000     16.792000     -8.128000
C         -22.048000     17.314000     -7.382000
C         -21.187000     16.491000     -6.462000
C         -21.096000     15.057000     -6.682000
C         -20.385000     16.924000     -5.345000
N         -20.441000     14.167000     -5.930000
N         -20.246000     18.268000     -5.054000
C         -19.825000     15.990000     -4.484000
C         -19.912000     14.599000     -4.749000
S         -19.256000     18.238000     -3.780000
N         -19.168000     16.647000     -3.459000
C         -19.369000     13.502000     -4.016000
S         -18.924000     11.943000     -4.661000
C         -19.093000     13.488000     -2.619000
C         -18.665000     11.273000     -3.080000
S         -19.767000     14.601000     -1.354000
C         -18.773000     12.245000     -2.126000
C         -18.472000      9.831000     -2.773000
C         -19.388000     13.327000     -0.179000
C         -18.854000     12.199000     -0.709000
N         -17.627000      9.629000     -1.788000
S         -18.844000      8.447000     -3.811000
C         -17.465000      8.251000     -1.589000
C         -18.013000      7.510000     -2.595000
C         -24.823000     19.780000     -9.681000
H         -22.532000     20.578000     -8.311000
H         -21.035000     19.232000     -7.016000
H         -23.283000     15.715000     -8.141000
H         -21.627000     14.701000     -7.564000
H         -19.761000     13.434000      0.831000
H         -18.594000     11.338000     -0.104000
H         -16.789000      7.842000     -0.850000
H         -17.815000      6.458000     -2.754000
H         -24.289000     20.696000     -9.961000
C         -26.032000     20.111000     -8.814000
H         -25.211000     19.183000    -10.515000
H         -25.708000     20.570000     -7.872000
H         -26.449000     19.121000     -8.594000
C         -27.062000     20.945000     -9.629000
H         -26.624000     21.914000     -9.900000
C         -28.214000     21.299000     -8.709000
H         -27.384000     20.457000    -10.556000
H         -27.834000     21.999000     -7.954000
H         -28.607000     20.426000     -8.172000
C         -29.569000     21.868000     -9.399000
H         -29.986000     21.074000    -10.032000
C         -29.105000     22.980000    -10.430000
H         -30.305000     22.346000     -8.742000
H         -28.403000     23.785000    -10.177000
H         -30.021000     23.417000    -10.846000
H         -28.786000     22.560000    -11.391000
C         -16.830000     26.150000     -0.261000
C         -17.849000     25.332000      0.202000
N         -15.705000     25.634000     -0.835000
C         -17.729000     23.955000      0.098000
C         -15.676000     24.336000     -1.080000
C         -16.705000     23.409000     -0.645000
C         -16.484000     21.889000     -0.788000
C         -17.090000     20.943000      0.071000
C         -15.826000     21.254000     -1.859000
N         -17.025000     19.578000     -0.073000
N         -15.245000     21.944000     -2.904000
C         -15.772000     19.881000     -2.056000
C         -16.443000     19.029000     -1.156000
S         -14.360000     20.899000     -3.741000
N         -14.922000     19.511000     -3.070000
C         -16.381000     17.542000     -1.251000
S         -15.603000     16.695000     -2.593000
C         -16.660000     16.715000     -0.187000
C         -15.642000     15.150000     -1.655000
S         -17.377000     16.900000      1.306000
C         -16.256000     15.325000     -0.461000
C         -15.369000     13.863000     -2.223000
C         -17.200000     15.137000      1.623000
C         -16.540000     14.426000      0.622000
N         -14.884000     13.879000     -3.450000
S         -15.287000     12.308000     -1.456000
C         -14.469000     12.579000     -3.823000
C         -14.591000     11.601000     -2.889000
C         -16.902000     27.662000     -0.049000
H         -18.608000     25.650000      0.911000
H         -18.492000     23.294000      0.499000
H         -14.699000     24.024000     -1.444000
H         -17.658000     21.261000      0.943000
H         -17.520000     14.736000      2.575000
H         -16.346000     13.361000      0.552000
H         -13.914000     12.335000     -4.719000
H         -14.102000     10.639000     -2.965000
H         -16.543000     28.121000     -0.979000
C         -16.156000     28.209000      1.165000
H         -17.953000     27.951000      0.071000
H         -16.033000     29.262000      0.882000
H         -15.218000     27.650000      1.263000
C         -17.041000     28.222000      2.394000
H         -18.044000     28.634000      2.226000
C         -16.332000     29.014000      3.575000
H         -17.062000     27.169000      2.698000
H         -16.245000     30.085000      3.354000
H         -15.290000     28.685000      3.678000
C         -17.155000     29.014000      4.925000
H         -17.259000     28.017000      5.371000
C         -18.589000     29.567000      4.669000
H         -16.620000     29.676000      5.617000
H         -19.162000     29.631000      5.603000
H         -19.262000     28.840000      4.199000
H         -18.611000     30.540000      4.164000
$end

--------------------------------------------------------------

             Standard Nuclear Orientation (Angstroms)
    I     Atom           X                Y                Z
 ----------------------------------------------------------------
    1      C       1.0340046631    -7.7783101560    -1.0266686145
    2      C       0.1986677204    -6.7391832748    -1.3996223879
    3      N       2.3123608431    -7.5270910208    -0.6457704348
    4      C       0.6842087160    -5.4214998430    -1.3203928794
    5      C       2.7946967599    -6.2760597418    -0.6183696635
    6      C       2.0047962299    -5.1446134080    -0.8905283423
    7      C       2.4731400552    -3.7278336617    -0.6944691382
    8      C       3.9005979637    -3.4533247771    -0.7012361002
    9      C       1.6883874927    -2.5336514656    -0.5034866830
   10      N       4.4955572508    -2.2778685334    -0.4755038122
   11      N       0.3094541495    -2.5732724037    -0.5889911640
   12      C       2.3032157572    -1.3468301869    -0.1283620935
   13      C       3.7159400088    -1.2412412295    -0.0526246463
   14      S      -0.0894857253    -1.0288645745    -0.3445991973
   15      N       1.3404984991    -0.3717216237     0.0620631443
   16      C       4.5234106955    -0.1091108178     0.2664659692
   17      S       6.1589434167     0.1813462882    -0.2675737178
   18      C       4.1322173697     0.9902627027     1.0827543033
   19      C       6.3474503766     1.5459572489     0.7897077262
   20      S       2.7725367255     1.0388490408     2.2836614245
   21      C       5.1630958162     1.8418005320     1.4031773890
   22      C       7.6301098275     2.2343105465     1.0927200541
   23      C       3.6416229362     2.3778189830     3.0577354857
   24      C       4.8254818201     2.7018102980     2.4815863986
   25      N       7.4867175228     3.5298652067     1.2540605931
   26      S       9.2705265086     1.6354387776     0.8069409143
   27      C       8.7400838202     4.1108703637     1.4911996495
   28      C       9.7694400616     3.2477625573     1.2526799590
   29      C       0.4916302132    -9.2387001991    -1.0168768808
   30      H      -0.8306602956    -6.8870183135    -1.7122365859
   31      H      -0.0143335378    -4.6395069399    -1.6024492909
   32      H       3.8434800593    -6.1408320033    -0.3567706389
   33      H       4.5256293585    -4.3183620846    -0.9195643213
   34      H       3.2920683000     2.7271949256     4.0202457491
   35      H       5.4643205202     3.4883897116     2.8664551314
   36      H       8.8759150151     5.1761652973     1.6218694275
   37      H      10.8055490434     3.5462501964     1.1600932038
   38      H      -0.3520828495    -9.2522690631    -1.7172882983
   39      C       0.0330259240    -9.6442595789     0.3788790777
   40      H       1.3231316100    -9.9101690741    -1.2623233655
   41      H      -0.6907023212    -8.9166026608     0.7658594862
   42      H       0.9547968863    -9.5659102707     0.9675969039
   43      C      -0.4611844012   -11.1195166448     0.3715480571
   44      H      -1.3505276354   -11.2101329627    -0.2649291967
   45      C      -0.9608833793   -11.4552148370     1.7631038968
   46      H       0.2860713587   -11.8290458862    -0.0017267545
   47      H      -1.8688303858   -10.8652633664     1.9420298470
   48      H      -0.2399930721   -11.1847942805     2.5454956706
   49      C      -1.2094992517   -13.0225291445     2.1060353908
   50      H      -0.2419331188   -13.5383762045     2.0537707849
   51      C      -2.0297908517   -13.6159229142     0.8854590823
   52      H      -1.7890848482   -13.2539784740     3.0073348661
   53      H      -2.9264725342   -13.1386611813     0.4695009130
   54      H      -2.2618512173   -14.6558767191     1.1456994908
   55      H      -1.3893664828   -13.8970136719     0.0413461671
   56      C      -8.8296476463     1.0655853012    -0.6469736558
   57      C      -8.0914259459     0.8193498982     0.5003061041
   58      N      -8.2673073845     1.6427325288    -1.7478966811
   59      C      -6.7526808593     1.1754117400     0.5485405093
   60      C      -6.9584220827     1.8229601836    -1.7505909706
   61      C      -6.1072633515     1.5780465877    -0.6003991845
   62      C      -4.6288066932     2.0174928909    -0.6276545688
   63      C      -3.9092141013     2.3568692939     0.5415516401
   64      C      -3.7791380231     1.9651456030    -1.7495070156
   65      N      -2.5666404069     2.6443321081     0.5967513295
   66      N      -4.2004279672     1.5507411589    -2.9970925797
   67      C      -2.4135042476     2.2125920509    -1.7236488170
   68      C      -1.7900690850     2.5080122925    -0.4947466732
   69      S      -3.0399378861     1.9134433821    -4.0447227000
   70      N      -1.8487078256     2.2720481794    -2.9746747842
   71      C      -0.3437467886     2.8543895051    -0.3842358527
   72      S       0.7738057138     2.7674347965    -1.7506809789
   73      C       0.1796340403     3.5342437279     0.6917459054
   74      C       2.0007909211     3.7161722937    -0.8218136781
   75      S      -0.3496302762     3.9235555294     2.2233067447
   76      C       1.5548230404     3.9913714475     0.4266393948
   77      C       3.3682073949     3.8644749963    -1.2239336795
   78      C       1.2392278608     4.6848286532     2.5920614753
   79      C       2.1424060905     4.6972891512     1.5303478503
   80      N       3.6504062616     3.4276871072    -2.4366125898
   81      S       4.6419960674     4.7942099969    -0.4986108228
   82      C       4.9655772277     3.8074859528    -2.7935890130
   83      C       5.6568111172     4.5551534382    -1.8953056271
   84      C     -10.3311848656     0.7807938559    -0.6704643318
   85      H      -8.5300729136     0.6434259596     1.4783273746
   86      H      -6.1683103041     1.0376464980     1.4537602574
   87      H      -6.6373624542     2.3771938459    -2.6304288890
   88      H      -4.4076973874     2.4244573175     1.5064756125
   89      H       1.3882438771     5.1593418309     3.5523408466
   90      H       3.1669142793     5.0530468727     1.5062560531
   91      H       5.4007422476     3.6970365508    -3.7778701391
   92      H       6.5607844048     5.0968065472    -2.1398157595
   93      H     -10.5449188868     0.3346515965    -1.6501259329
   94      C     -11.2473191854     1.9685797398    -0.3887133742
   95      H     -10.5574794228     0.0219564616     0.0881387149
   96      H     -12.1888386647     1.6204371933    -0.8318440970
   97      H     -10.8129696545     2.8505365446    -0.8739160941
   98      C     -11.5260550642     2.1083057947     1.0933857923
   99      H     -11.7951681216     1.1699656586     1.5944575949
  100      C     -12.6650306515     3.1883485006     1.3402630192
  101      H     -10.5983984659     2.5441786610     1.4821454612
  102      H     -13.6379228622     2.8493275059     0.9634387743
  103      H     -12.4607661025     4.0932359036     0.7536892541
  104      C     -12.9693807638     3.4539067094     2.8688829350
  105      H     -12.1276947078     3.9066739652     3.4076847494
  106      C     -13.3152606136     2.1110000269     3.5792840693
  107      H     -13.8359742550     4.1256223071     2.9027485036
  108      H     -13.5868805106     2.2765168886     4.6298114607
  109      H     -12.4362042250     1.4968430924     3.8082581409
  110      H     -14.1077634404     1.5345251584     3.0874975349
 ----------------------------------------------------------------

   10   -5663.4908608832      3.77E-06 Convergence criterion met
 Total energy in the final basis set = -5663.4908608832

                    Orbital Energies (a.u.)
 --------------------------------------------------------------

 Alpha MOs
 -- Occupied --
-88.989 -88.988 -88.933 -88.922 -88.917 -88.914 -88.912 -88.903
-14.385 -14.381 -14.380 -14.373 -14.349 -14.348 -14.347 -14.334
-14.328 -14.326 -10.274 -10.261 -10.259 -10.258 -10.258 -10.257
-10.253 -10.250 -10.242 -10.236 -10.236 -10.235 -10.234 -10.233
-10.232 -10.231 -10.229 -10.228 -10.228 -10.227 -10.227 -10.227
-10.226 -10.226 -10.226 -10.220 -10.220 -10.219 -10.219 -10.214
-10.207 -10.206 -10.205 -10.201 -10.201 -10.195 -10.192 -10.190
-10.187 -10.185 -10.184 -10.181 -10.181 -10.180 -10.179 -10.178
-10.178 -10.176 -10.175 -10.168  -8.044  -8.043  -7.994  -7.982
 -7.978  -7.973  -7.972  -7.963  -6.009  -6.008  -6.003  -6.002
 -6.002  -6.001  -5.958  -5.955  -5.951  -5.946  -5.943  -5.942
 -5.939  -5.939  -5.937  -5.937  -5.935  -5.933  -5.933  -5.929
 -5.928  -5.927  -5.924  -5.918  -1.034  -1.030  -0.971  -0.957
 -0.955  -0.951  -0.940  -0.932  -0.911  -0.903  -0.896  -0.889
 -0.842  -0.837  -0.829  -0.825  -0.810  -0.809  -0.807  -0.806
 -0.801  -0.800  -0.796  -0.790  -0.780  -0.779  -0.767  -0.761
 -0.747  -0.746  -0.743  -0.735  -0.725  -0.714  -0.707  -0.706
 -0.693  -0.691  -0.671  -0.670  -0.653  -0.646  -0.644  -0.642
 -0.633  -0.632  -0.623  -0.619  -0.614  -0.610  -0.596  -0.593
 -0.587  -0.586  -0.579  -0.578  -0.575  -0.574  -0.564  -0.561
 -0.553  -0.539  -0.537  -0.535  -0.520  -0.517  -0.513  -0.509
 -0.504  -0.504  -0.495  -0.491  -0.488  -0.484  -0.477  -0.475
 -0.471  -0.468  -0.467  -0.466  -0.462  -0.457  -0.448  -0.445
 -0.442  -0.439  -0.437  -0.435  -0.434  -0.433  -0.430  -0.428
 -0.427  -0.424  -0.421  -0.421  -0.420  -0.416  -0.414  -0.412
 -0.409  -0.405  -0.404  -0.400  -0.396  -0.395  -0.393  -0.391
 -0.390  -0.390  -0.389  -0.387  -0.386  -0.384  -0.382  -0.381
 -0.381  -0.378  -0.370  -0.365  -0.363  -0.357  -0.356  -0.354
 -0.350  -0.349  -0.346  -0.345  -0.342  -0.341  -0.341  -0.339
 -0.338  -0.333  -0.331  -0.329  -0.328  -0.326  -0.326  -0.322
 -0.315  -0.309  -0.308  -0.307  -0.302  -0.301  -0.298  -0.295
 -0.293  -0.291  -0.288  -0.288  -0.285  -0.278  -0.275  -0.274
 -0.273  -0.271  -0.267  -0.266  -0.257  -0.253  -0.252  -0.244
 -0.240  -0.237  -0.232  -0.226  -0.193  -0.188

          Ground-State Mulliken Net Atomic Charges

     Atom                 Charge (a.u.)
  ----------------------------------------
      1 C                     0.265188
      2 C                    -0.118286
      3 N                    -0.499768
      4 C                    -0.079354
      5 C                     0.076592
      6 C                     0.043969
      7 C                     0.038043
      8 C                     0.062876
      9 C                     0.179621
     10 N                    -0.516880
     11 N                    -0.545620
     12 C                     0.249377
     13 C                     0.286158
     14 S                     0.627078
     15 N                    -0.547398
     16 C                    -0.215240
     17 S                     0.324043
     18 C                    -0.147052
     19 C                    -0.219291
     20 S                     0.270560
     21 C                     0.168168
     22 C                     0.029339
     23 C                    -0.294217
     24 C                    -0.053327
     25 N                    -0.406047
     26 S                     0.280620
     27 C                     0.109753
     28 C                    -0.300538
     29 C                    -0.218028
     30 H                     0.088137
     31 H                     0.123287
     32 H                     0.100456
     33 H                     0.105538
     34 H                     0.124791
     35 H                     0.112120
     36 H                     0.116545
     37 H                     0.130759
     38 H                     0.094429
     39 C                    -0.178208
     40 H                     0.115351
     41 H                     0.094555
     42 H                     0.116731
     43 C                    -0.167522
     44 H                     0.097827
     45 C                    -0.176871
     46 H                     0.095279
     47 H                     0.091807
     48 H                     0.089381
     49 C                    -0.186656
     50 H                     0.100842
     51 C                    -0.330640
     52 H                     0.102632
     53 H                     0.104224
     54 H                     0.087987
     55 H                     0.101159
     56 C                     0.249675
     57 C                    -0.117325
     58 N                    -0.464890
     59 C                    -0.079846
     60 C                     0.092690
     61 C                     0.040106
     62 C                     0.056147
     63 C                     0.032664
     64 C                     0.186492
     65 N                    -0.540394
     66 N                    -0.539720
     67 C                     0.205580
     68 C                     0.314787
     69 S                     0.616359
     70 N                    -0.564541
     71 C                    -0.228587
     72 S                     0.363131
     73 C                    -0.077137
     74 C                    -0.233004
     75 S                     0.282911
     76 C                     0.122681
     77 C                     0.067337
     78 C                    -0.332256
     79 C                    -0.038295
     80 N                    -0.445717
     81 S                     0.291181
     82 C                     0.104975
     83 C                    -0.300784
     84 C                    -0.228225
     85 H                     0.093501
     86 H                     0.096860
     87 H                     0.114509
     88 H                     0.107996
     89 H                     0.122335
     90 H                     0.123505
     91 H                     0.110758
     92 H                     0.134205
     93 H                     0.111391
     94 C                    -0.168365
     95 H                     0.092947
     96 H                     0.095718
     97 H                     0.113915
     98 C                    -0.174543
     99 H                     0.097682
    100 C                    -0.179761
    101 H                     0.095017
    102 H                     0.089934
    103 H                     0.089375
    104 C                    -0.176997
    105 H                     0.093350
    106 C                    -0.322692
    107 H                     0.095117
    108 H                     0.094930
    109 H                     0.104179
    110 H                     0.104859
  ----------------------------------------
  Sum of atomic charges =     0.000000

                    Cartesian Multipole Moments
 -----------------------------------------------------------------
    Charge (ESU x 10^10)
                 0.0000
    Dipole Moment (Debye)
         X       1.4993      Y       2.5812      Z       2.4933
       Tot       3.8894
    Quadrupole Moments (Debye-Ang)
        XX    -394.0004     XY      41.1841     YY    -436.6969
        XZ      -9.7705     YZ      11.1433     ZZ    -437.1697

 Total job time:  105.21s(wall), 1117.19s(cpu)
        *  Thank you very much for using Q-Chem.  Have a nice day.  *
