 Q-Chem 4.4, Q-Chem, Inc., Pleasanton, CA (2016)
 Q-Chem 4.4.2 for Intel X86 Linux

User input:
--------------------------------------------------------------
$comment
SP
$end

$rem
MEM_STATIC 5000
MEM_TOTAL 20000
JOBTYPE SP
EXCHANGE B3LYP
BASIS 6-31g(d,p)
$end

$molecule
0 1
C          -1.356000    -17.143000     11.799000
C          -0.509000    -16.902000     12.901000
N          -0.926000    -17.202000     10.490000
C           0.802000    -16.506000     12.634000
C           0.388000    -16.793000     10.297000
C           1.296000    -16.412000     11.320000
C           2.694000    -16.043000     10.982000
C           3.148000    -14.781000     11.319000
C           3.647000    -17.001000     10.581000
N           4.399000    -14.360000     11.063000
N           3.320000    -18.283000     10.465000
C           4.960000    -16.637000     10.336000
C           5.285000    -15.236000     10.405000
S           4.659000    -18.977000      9.851000
N           5.694000    -17.699000      9.912000
C           6.623000    -14.754000      9.818000
S           7.624000    -15.735000      8.731000
C           6.937000    -13.436000      9.595000
C           8.456000    -14.272000      8.033000
S           6.139000    -11.957000     10.232000
C           7.831000    -13.183000      8.561000
C           9.322000    -14.277000      6.941000
C           7.071000    -11.001000      8.959000
C           7.948000    -11.815000      8.254000
N           9.848000    -15.455000      6.656000
S           9.316000    -13.124000      5.615000
C          10.180000    -15.546000      5.288000
C           9.820000    -14.471000      4.556000
C          -2.745000    -17.658000     12.062000
H          -0.873000    -17.238000     13.868000
H           1.452000    -16.221000     13.455000
H           0.736000    -16.821000      9.265000
H           2.431000    -14.027000     11.641000
H           6.852000     -9.962000      8.749000
H           8.530000    -11.421000      7.429000
H          10.593000    -16.456000      4.873000
H           9.659000    -14.185000      3.525000
H          -2.662000    -18.668000     12.483000
C          -3.654000    -17.664000     10.777000
H          -3.319000    -17.075000     12.793000
H          -3.219000    -18.185000      9.915000
H          -3.860000    -16.652000     10.407000
C          -4.912000    -18.400000     11.162000
H          -4.624000    -19.402000     11.504000
C          -6.032000    -18.634000     10.027000
H          -5.418000    -17.839000     11.958000
H          -6.988000    -19.060000     10.355000
H          -5.706000    -19.398000      9.311000
C          -6.464000    -17.295000      9.442000
H          -5.623000    -16.932000      8.839000
C          -7.112000    -16.394000     10.512000
H          -7.207000    -17.505000      8.662000
H          -8.016000    -16.916000     10.847000
H          -7.347000    -15.373000     10.186000
H          -6.456000    -16.280000     11.384000
C          -4.540000    -14.114000      5.883000
C          -4.659000    -15.180000      4.961000
N          -3.899000    -14.316000      7.064000
C          -4.276000    -16.527000      5.313000
C          -3.385000    -15.592000      7.339000
C          -3.571000    -16.765000      6.555000
C          -2.995000    -18.139000      6.809000
C          -1.570000    -18.317000      6.959000
C          -3.694000    -19.327000      6.719000
N          -0.906000    -19.433000      7.174000
N          -5.014000    -19.474000      6.551000
C          -3.041000    -20.555000      6.919000
C          -1.600000    -20.563000      7.053000
S          -5.362000    -21.048000      6.677000
N          -3.862000    -21.641000      6.759000
C          -0.779000    -21.762000      6.965000
S          -1.429000    -23.318000      6.429000
C           0.537000    -21.988000      7.311000
C           0.025000    -24.267000      6.776000
S           1.677000    -20.841000      7.738000
C           0.951000    -23.323000      7.146000
C           0.376000    -25.615000      6.465000
C           2.822000    -22.196000      7.764000
C           2.332000    -23.410000      7.411000
N          -0.663000    -26.462000      6.513000
S           1.810000    -26.255000      5.684000
C          -0.223000    -27.747000      6.132000
C           1.096000    -27.841000      5.740000
C          -5.100000    -12.739000      5.415000
H          -5.164000    -15.079000      4.005000
H          -4.397000    -17.338000      4.602000
H          -2.820000    -15.675000      8.267000
H          -0.970000    -17.425000      7.137000
H           3.831000    -21.926000      8.046000
H           2.938000    -24.308000      7.368000
H          -0.946000    -28.537000      6.283000
H           1.692000    -28.735000      5.616000
H          -6.138000    -12.895000      5.098000
C          -4.302000    -12.137000      4.239000
H          -5.169000    -11.991000      6.214000
H          -3.967000    -12.830000      3.458000
H          -3.421000    -11.568000      4.561000
C          -5.211000    -11.151000      3.360000
H          -6.048000    -11.730000      2.950000
C          -4.375000    -10.336000      2.342000
H          -5.689000    -10.383000      3.982000
H          -3.571000    -10.932000      1.894000
H          -3.796000     -9.562000      2.863000
C          -5.207000     -9.692000      1.184000
H          -5.747000    -10.489000      0.658000
C          -4.242000     -8.999000      0.225000
H          -5.880000     -8.877000      1.476000
H          -3.393000     -9.675000      0.065000
H          -3.818000     -8.098000      0.686000
H          -4.764000     -8.718000     -0.698000
$end

--------------------------------------------------------------

             Standard Nuclear Orientation (Angstroms)
    I     Atom           X                Y                Z
 ----------------------------------------------------------------
    1      C      -1.2617673505     0.5772566645     4.3592607724
    2      C      -0.2841283225     0.2481813005     5.3214589514
    3      N      -1.0459820777     0.5561100497     2.9973314288
    4      C       1.0287386551     0.0835093411     4.8786390728
    5      C       0.2832603062     0.3895476938     2.6278755228
    6      C       1.3692181689     0.1718215738     3.5163826174
    7      C       2.7397065654    -0.0423805191     2.9865826378
    8      C       3.7429813070     0.8299010255     3.3672316887
    9      C       3.1151134194    -1.2355287511     2.3367819064
   10      N       5.0149074600     0.7112987870     2.9478090256
   11      N       2.2392895188    -2.2162176799     2.1494567345
   12      C       4.4178025043    -1.4331169986     1.9119878004
   13      C       5.3400214328    -0.3380677658     2.0655014021
   14      S       3.0527839917    -3.3047322581     1.2522857612
   15      N       4.5497629425    -2.6212895112     1.2660709923
   16      C       6.6811441301    -0.3852401821     1.3129712207
   17      S       7.0156637818    -1.5065992989    -0.0199133707
   18      C       7.5253206429     0.6887295065     1.1736725375
   19      C       8.3340038958    -0.4471520072    -0.6976653752
   20      S       7.5456438709     2.2399301301     2.0810740977
   21      C       8.3220238475     0.7013195492     0.0345911117
   22      C       8.9843289219    -0.6423936287    -1.9147944028
   23      C       8.6647991740     2.9004568103     0.7717670626
   24      C       9.0046139297     1.9177760645    -0.1488927463
   25      N       8.8945444356    -1.8675887300    -2.4010255308
   26      S       9.3527876579     0.6030347395    -3.0983768204
   27      C       9.0026884748    -1.8655790277    -3.8075211149
   28      C       9.0852927328    -0.6357557974    -4.3568483023
   29      C      -2.6975267185     0.6701580931     4.7993509468
   30      H      -0.6543599099    -0.0537956759     6.2972762895
   31      H       1.8210774110    -0.0760316668     5.6028710541
   32      H       0.4696457035     0.3854886091     1.5544902203
   33      H       3.4775638458     1.7537875343     3.8793608619
   34      H       8.9122722269     3.9521884892     0.7069630220
   35      H       9.6095479010     2.1547551933    -1.0163492483
   36      H       8.9184505928    -2.7828621500    -4.3753147858
   37      H       8.9600610335    -0.1432216988    -5.3120473303
   38      H      -3.0303002994    -0.3323257752     5.0968704210
   39      C      -3.6447314539     1.2647163027     3.6917202662
   40      H      -2.8687037500     1.3136695202     5.6713127963
   41      H      -3.5832819606     0.7572839807     2.7209234809
   42      H      -3.4148623467     2.3131881787     3.4651216807
   43      C      -5.0498972279     1.0851027130     4.2072133370
   44      H      -5.2054571510     0.0150602028     4.3935521053
   45      C      -6.2703973432     1.5425556301     3.2593223638
   46      H      -5.1635733981     1.6692982991     5.1292579376
   47      H      -7.2748653280     1.5187407886     3.6991779319
   48      H      -6.3987828252     0.8417281400     2.4256641621
   49      C      -6.1180469694     3.0136736002     2.8927554781
   50      H      -5.2732353792     3.0758616567     2.1962750241
   51      C      -6.1766197232     3.9157767137     4.1415085381
   52      H      -6.9550844899     3.2729088208     2.2319118584
   53      H      -7.1770651213     3.7832419004     4.5698408024
   54      H      -5.9637869363     4.9774164368     3.9638422690
   55      H      -5.4499386343     3.5932845031     4.8975835140
   56      C      -3.3673946813     5.6035997353    -0.6019852282
   57      C      -4.0479868952     4.8584589503    -1.5930253125
   58      N      -2.7622883439     4.9558368150     0.4279155046
   59      C      -4.2723081324     3.4394797490    -1.4474917809
   60      C      -2.8467470272     3.5566126303     0.4830100770
   61      C      -3.6199381517     2.7223241398    -0.3721619522
   62      C      -3.6953759432     1.2129286823    -0.3579319630
   63      C      -2.4932988973     0.4207378577    -0.4686273697
   64      C      -4.8568033156     0.4705852322    -0.4476964372
   65      N      -2.3794249954    -0.8905371742    -0.4815705236
   66      N      -6.1128100848     0.9319439803    -0.4049401362
   67      C      -4.8043609230    -0.9330781858    -0.4847343164
   68      C      -3.5137970782    -1.5783665688    -0.5967560336
   69      S      -7.1119634829    -0.3391036017    -0.3807217250
   70      N      -6.0360260136    -1.5210818757    -0.6123656806
   71      C      -3.3299296760    -2.9807475290    -0.9415841371
   72      S      -4.6599371073    -3.9978506481    -1.5138720698
   73      C      -2.2251908564    -3.8012155156    -0.8465450746
   74      C      -3.7556834533    -5.5201683781    -1.5136308767
   75      S      -0.6544334712    -3.3392754447    -0.5046816406
   76      C      -2.4718113815    -5.1378035458    -1.2119992499
   77      C      -4.0796556109    -6.8173761822    -2.0129503678
   78      C      -0.2403594719    -5.0376017286    -0.8079250353
   79      C      -1.2558615919    -5.8491927972    -1.1933862935
   80      N      -5.3759071664    -7.1339067908    -1.8759311045
   81      S      -3.1754792109    -7.8710607025    -3.0844591029
   82      C      -5.6001477525    -8.4016627982    -2.4525565160
   83      C      -4.5125348142    -8.9847727243    -3.0684639039
   84      C      -3.3001464016     7.1422179780    -0.8286580585
   85      H      -4.5534263068     5.3213074050    -2.4353223559
   86      H      -4.8181732400     2.8871828292    -2.2057017761
   87      H      -2.2829621346     3.0887116765     1.2895541194
   88      H      -1.5427063875     0.9278317817    -0.3056008917
   89      H       0.8065784524    -5.2753840870    -0.6741882314
   90      H      -1.1236063400    -6.8994789400    -1.4276864571
   91      H      -6.5792682565    -8.8195731495    -2.2620204905
   92      H      -4.3960209472   -10.0139133863    -3.3801079582
   93      H      -4.3256232223     7.4994884934    -0.9803949004
   94      C      -2.4478747013     7.5294248064    -2.0558042685
   95      H      -2.9417949640     7.7052906267     0.0415140161
   96      H      -2.5434715843     6.8985453880    -2.9475931423
   97      H      -1.3767070539     7.6055813195    -1.8312913362
   98      C      -2.9083424332     8.9390426593    -2.6657755602
   99      H      -3.9542958908     8.8496478987    -2.9849932624
  100      C      -1.9102483676     9.4733675190    -3.7230126104
  101      H      -2.9232044615     9.7238696653    -1.8983006807
  102      H      -1.5103923824     8.6734387180    -4.3574927948
  103      H      -0.9944300825     9.8281708972    -3.2319429295
  104      C      -2.4849774322    10.5919149797    -4.6538520598
  105      H      -3.3769716746    10.2008127761    -5.1586989057
  106      C      -1.4205422809    10.9529369458    -5.6871941856
  107      H      -2.6872538356    11.5561420330    -4.1724287054
  108      H      -0.9857293130    10.0153156882    -6.0548639564
  109      H      -0.5920290746    11.4967693518    -5.2161207508
  110      H      -1.8571030644    11.5776330869    -6.4762083892
 ----------------------------------------------------------------

    9   -5663.4653093287      9.83E-06 Convergence criterion met
 Total energy in the final basis set = -5663.4653093287

                    Orbital Energies (a.u.)
 --------------------------------------------------------------

 Alpha MOs
 -- Occupied --
-88.990 -88.988 -88.930 -88.924 -88.923 -88.913 -88.912 -88.908
-14.389 -14.383 -14.381 -14.371 -14.356 -14.348 -14.346 -14.342
-14.336 -14.332 -10.279 -10.268 -10.267 -10.263 -10.256 -10.255
-10.250 -10.249 -10.248 -10.240 -10.237 -10.237 -10.236 -10.236
-10.236 -10.235 -10.234 -10.233 -10.233 -10.232 -10.230 -10.230
-10.228 -10.228 -10.223 -10.221 -10.221 -10.219 -10.216 -10.214
-10.212 -10.211 -10.208 -10.207 -10.203 -10.199 -10.198 -10.197
-10.193 -10.187 -10.186 -10.182 -10.181 -10.180 -10.170 -10.169
-10.169 -10.168 -10.166 -10.163  -8.045  -8.043  -7.991  -7.986
 -7.981  -7.972  -7.971  -7.970  -6.010  -6.008  -6.005  -6.003
 -6.003  -6.001  -5.955  -5.951  -5.950  -5.947  -5.946  -5.945
 -5.943  -5.942  -5.937  -5.937  -5.935  -5.934  -5.933  -5.932
 -5.930  -5.929  -5.927  -5.926  -1.042  -1.038  -0.969  -0.968
 -0.958  -0.946  -0.923  -0.918  -0.916  -0.913  -0.906  -0.899
 -0.847  -0.835  -0.831  -0.830  -0.810  -0.808  -0.804  -0.802
 -0.801  -0.801  -0.797  -0.791  -0.780  -0.779  -0.765  -0.762
 -0.749  -0.748  -0.742  -0.736  -0.721  -0.714  -0.710  -0.704
 -0.695  -0.687  -0.677  -0.676  -0.654  -0.648  -0.642  -0.640
 -0.636  -0.629  -0.627  -0.620  -0.613  -0.605  -0.601  -0.595
 -0.595  -0.589  -0.584  -0.581  -0.577  -0.576  -0.572  -0.547
 -0.543  -0.542  -0.541  -0.540  -0.525  -0.524  -0.520  -0.515
 -0.504  -0.500  -0.499  -0.497  -0.483  -0.483  -0.479  -0.475
 -0.473  -0.470  -0.469  -0.468  -0.465  -0.463  -0.452  -0.445
 -0.444  -0.440  -0.440  -0.437  -0.436  -0.433  -0.432  -0.431
 -0.430  -0.426  -0.425  -0.423  -0.419  -0.416  -0.412  -0.406
 -0.405  -0.402  -0.401  -0.399  -0.398  -0.397  -0.394  -0.393
 -0.391  -0.387  -0.387  -0.385  -0.385  -0.382  -0.378  -0.377
 -0.377  -0.374  -0.369  -0.364  -0.361  -0.361  -0.359  -0.352
 -0.352  -0.349  -0.349  -0.347  -0.342  -0.341  -0.339  -0.338
 -0.335  -0.332  -0.330  -0.330  -0.329  -0.328  -0.325  -0.315
 -0.311  -0.311  -0.307  -0.306  -0.300  -0.299  -0.298  -0.297
 -0.295  -0.290  -0.288  -0.285  -0.284  -0.283  -0.281  -0.280
 -0.278  -0.270  -0.262  -0.258  -0.256  -0.256  -0.250  -0.245
 -0.245  -0.239  -0.237  -0.233  -0.200  -0.196

          Ground-State Mulliken Net Atomic Charges

     Atom                 Charge (a.u.)
  ----------------------------------------
      1 C                     0.269994
      2 C                    -0.109361
      3 N                    -0.483007
      4 C                    -0.071989
      5 C                     0.082009
      6 C                     0.040488
      7 C                    -0.018198
      8 C                     0.075991
      9 C                     0.232366
     10 N                    -0.507486
     11 N                    -0.533209
     12 C                     0.242969
     13 C                     0.274276
     14 S                     0.603711
     15 N                    -0.566291
     16 C                    -0.230907
     17 S                     0.352477
     18 C                    -0.130251
     19 C                    -0.209672
     20 S                     0.273723
     21 C                     0.167890
     22 C                     0.051473
     23 C                    -0.307370
     24 C                    -0.072142
     25 N                    -0.430261
     26 S                     0.249409
     27 C                     0.117898
     28 C                    -0.306415
     29 C                    -0.251868
     30 H                     0.100067
     31 H                     0.096028
     32 H                     0.104110
     33 H                     0.122139
     34 H                     0.134107
     35 H                     0.111673
     36 H                     0.122582
     37 H                     0.149421
     38 H                     0.121838
     39 C                    -0.170886
     40 H                     0.110774
     41 H                     0.115910
     42 H                     0.107304
     43 C                    -0.183766
     44 H                     0.083031
     45 C                    -0.190619
     46 H                     0.087490
     47 H                     0.080361
     48 H                     0.081868
     49 C                    -0.179608
     50 H                     0.106969
     51 C                    -0.314352
     52 H                     0.085414
     53 H                     0.101271
     54 H                     0.103359
     55 H                     0.101689
     56 C                     0.282102
     57 C                    -0.114496
     58 N                    -0.494866
     59 C                    -0.067877
     60 C                     0.043217
     61 C                     0.041165
     62 C                     0.013715
     63 C                     0.074125
     64 C                     0.246579
     65 N                    -0.495670
     66 N                    -0.561681
     67 C                     0.184652
     68 C                     0.300127
     69 S                     0.618614
     70 N                    -0.538848
     71 C                    -0.237610
     72 S                     0.339574
     73 C                    -0.093590
     74 C                    -0.189063
     75 S                     0.296005
     76 C                     0.115354
     77 C                     0.023228
     78 C                    -0.318464
     79 C                    -0.071149
     80 N                    -0.415322
     81 S                     0.278270
     82 C                     0.113237
     83 C                    -0.306591
     84 C                    -0.227617
     85 H                     0.087378
     86 H                     0.104309
     87 H                     0.125735
     88 H                     0.108730
     89 H                     0.116238
     90 H                     0.114072
     91 H                     0.116203
     92 H                     0.141629
     93 H                     0.111143
     94 C                    -0.184383
     95 H                     0.118855
     96 H                     0.104235
     97 H                     0.106962
     98 C                    -0.188213
     99 H                     0.090287
    100 C                    -0.182132
    101 H                     0.094523
    102 H                     0.088341
    103 H                     0.094255
    104 C                    -0.174712
    105 H                     0.095589
    106 C                    -0.316079
    107 H                     0.097007
    108 H                     0.098697
    109 H                     0.101978
    110 H                     0.097811
  ----------------------------------------
  Sum of atomic charges =     0.000000

                    Cartesian Multipole Moments
 -----------------------------------------------------------------
    Charge (ESU x 10^10)
                 0.0000
    Dipole Moment (Debye)
         X       0.7528      Y      -0.1351      Z      -3.4594
       Tot       3.5429
    Quadrupole Moments (Debye-Ang)
        XX    -443.0391     XY      14.6166     YY    -405.2659
        XZ     -15.2898     YZ       1.7081     ZZ    -418.4208

 Total job time:  84.76s(wall), 972.49s(cpu)
        *  Thank you very much for using Q-Chem.  Have a nice day.  *
