 Q-Chem 4.4, Q-Chem, Inc., Pleasanton, CA (2016)
 Q-Chem 4.4.2 for Intel X86 Linux

User input:
--------------------------------------------------------------
$comment
SP
$end

$rem
MEM_STATIC 5000
MEM_TOTAL 20000
JOBTYPE SP
EXCHANGE B3LYP
BASIS 6-31g(d,p)
$end

$molecule
0 1
C           0.448000      7.703000     12.315000
C           0.354000      8.049000     10.989000
N          -0.262000      6.636000     12.795000
C          -0.255000      7.216000     10.021000
C          -0.918000      5.841000     11.925000
C          -0.963000      6.025000     10.523000
C          -1.878000      5.117000      9.766000
C          -2.974000      4.537000     10.405000
C          -1.721000      4.747000      8.376000
N          -3.863000      3.685000      9.832000
N          -0.712000      5.116000      7.621000
C          -2.455000      3.715000      7.826000
C          -3.601000      3.240000      8.568000
S          -0.917000      4.311000      6.185000
N          -2.121000      3.372000      6.543000
C          -4.555000      2.222000      8.073000
S          -4.391000      1.272000      6.610000
C          -5.740000      1.891000      8.668000
C          -5.857000      0.338000      6.963000
S          -6.498000      2.651000      9.986000
C          -6.506000      0.901000      8.025000
C          -6.444000     -0.688000      6.244000
C          -7.861000      1.493000      9.781000
C          -7.750000      0.671000      8.648000
N          -7.723000     -0.571000      5.965000
S          -5.622000     -2.064000      5.502000
C          -8.124000     -1.696000      5.280000
C          -7.156000     -2.545000      4.845000
C           1.093000      8.566000     13.365000
H           0.937000      8.905000     10.662000
H          -0.409000      7.596000      9.015000
H          -1.443000      5.040000     12.443000
H          -3.186000      4.773000     11.446000
H          -8.590000      1.483000     10.581000
H          -8.444000     -0.089000      8.307000
H          -9.157000     -1.840000      4.991000
H          -7.173000     -3.443000      4.242000
H           2.156000      8.326000     13.488000
C           0.351000      8.782000     14.678000
H           1.152000      9.540000     12.864000
H           0.319000      7.878000     15.297000
H          -0.700000      8.982000     14.435000
C           0.768000      9.924000     15.655000
H           0.937000     10.840000     15.076000
C           2.170000      9.674000     16.439000
H           0.035000     10.032000     16.463000
H           2.956000      9.414000     15.720000
H           1.921000      8.821000     17.082000
C           2.569000     10.926000     17.321000
H           3.647000     10.855000     17.513000
C           1.937000     10.878000     18.731000
H           2.312000     11.832000     16.759000
H           2.345000     11.642000     19.405000
H           2.134000      9.899000     19.187000
H           0.847000     10.988000     18.783000
C         -12.081000      7.156000     -3.163000
C         -12.047000      6.767000     -1.792000
N         -10.964000      7.049000     -3.965000
C         -10.938000      6.102000     -1.302000
C          -9.868000      6.473000     -3.505000
C          -9.820000      5.880000     -2.197000
C          -8.698000      5.034000     -1.770000
C          -8.906000      3.863000     -0.964000
C          -7.365000      5.212000     -2.182000
N          -7.961000      2.999000     -0.618000
N          -6.962000      6.320000     -2.807000
C          -6.375000      4.274000     -1.938000
C          -6.625000      3.173000     -1.101000
S          -5.333000      6.058000     -3.172000
N          -5.155000      4.554000     -2.509000
C          -5.588000      2.126000     -0.801000
S          -4.048000      1.864000     -1.609000
C          -5.774000      1.229000      0.189000
C          -3.694000      0.513000     -0.543000
S          -6.998000      1.194000      1.450000
C          -4.685000      0.407000      0.418000
C          -2.446000     -0.201000     -0.582000
C          -6.062000     -0.116000      2.289000
C          -4.742000     -0.209000      1.742000
N          -2.337000     -1.320000      0.114000
S          -1.074000      0.250000     -1.599000
C          -1.085000     -1.891000     -0.035000
C          -0.243000     -1.134000     -0.902000
C         -13.349000      7.587000     -3.957000
H         -12.988000      6.905000     -1.268000
H         -11.095000      5.676000     -0.315000
H          -9.038000      6.548000     -4.206000
H          -9.901000      3.648000     -0.577000
H          -6.464000     -0.556000      3.192000
H          -3.939000     -0.828000      2.126000
H          -0.782000     -2.803000      0.462000
H           0.765000     -1.378000     -1.212000
H         -13.526000      8.655000     -3.777000
C         -14.571000      6.678000     -3.701000
H         -12.927000      7.530000     -4.967000
H         -15.461000      7.105000     -4.180000
H         -14.772000      6.838000     -2.635000
C         -14.310000      5.193000     -4.115000
H         -13.888000      5.067000     -5.120000
C         -15.617000      4.333000     -4.077000
H         -13.671000      4.711000     -3.366000
H         -16.313000      5.072000     -4.493000
H         -15.989000      4.151000     -3.061000
C         -15.471000      2.944000     -4.819000
H         -15.195000      3.205000     -5.848000
C         -16.774000      2.243000     -4.897000
H         -14.671000      2.353000     -4.356000
H         -16.647000      1.614000     -5.787000
H         -17.602000      2.926000     -5.126000
H         -16.969000      1.731000     -3.947000
$end

--------------------------------------------------------------

             Standard Nuclear Orientation (Angstroms)
    I     Atom           X                Y                Z
 ----------------------------------------------------------------
    1      C     -10.6359888693    -1.8882414090    -1.5733119551
    2      C      -9.5310039502    -2.0566237584    -2.3717377269
    3      N     -10.4969675744    -1.3703464809    -0.3141666406
    4      C      -8.2682370008    -1.4998864066    -2.0598769368
    5      C      -9.2980033040    -0.8822196507     0.0646180949
    6      C      -8.1287465556    -0.8765729039    -0.7318062711
    7      C      -6.8714594091    -0.4304699514    -0.0572996462
    8      C      -6.7431036087    -0.5415365226     1.3273035480
    9      C      -5.7283011328     0.1507048656    -0.7274294749
   10      N      -5.6626335432    -0.1558979136     2.0542294732
   11      N      -5.6801403146     0.4180099054    -2.0121456114
   12      C      -4.7188643593     0.7638694396    -0.0123444412
   13      C      -4.6677233150     0.5240586348     1.4122187801
   14      S      -4.2398959636     1.2075389951    -2.2455680308
   15      N      -3.7619341840     1.3927272523    -0.7634213287
   16      C      -3.5920844145     1.0117378743     2.3047628492
   17      S      -2.2980285267     2.1082865732     1.8657123850
   18      C      -3.4205633062     0.6479989525     3.6109349306
   19      C      -1.6802404788     2.1635290565     3.5274606199
   20      S      -4.2531436259    -0.5510050777     4.4818467210
   21      C      -2.3232503258     1.2217510546     4.2795287896
   22      C      -0.6066316605     2.8648530794     4.0468012789
   23      C      -3.1851192521    -0.1778343668     5.8821415319
   24      C      -2.1607335744     0.7383804441     5.5942554374
   25      N       0.2745035726     2.1842147688     4.7451587741
   26      S      -0.1911637345     4.5514642611     3.7268745308
   27      C       1.2386777872     3.0563958136     5.1982805115
   28      C       1.2359161567     4.3161178971     4.6882387038
   29      C     -11.9910797055    -2.4645256196    -1.8814017705
   30      H      -9.6982072896    -2.4733779519    -3.3606325573
   31      H      -7.4057655001    -1.7692410838    -2.6629880113
   32      H      -9.3299891972    -0.5105721714     1.0875575133
   33      H      -7.5434545271    -0.9867065361     1.9151666839
   34      H      -3.4745947428    -0.6270677838     6.8233823499
   35      H      -1.3911255180     1.1074438002     6.2628455052
   36      H       2.0420931609     2.7216846275     5.8415830524
   37      H       1.8948388801     5.1658828864     4.8066545292
   38      H     -12.6091463690    -1.7607074846    -2.4517802695
   39      C     -12.7402538141    -3.1840482316    -0.7668550617
   40      H     -11.7585137825    -3.2128622591    -2.6489064060
   41      H     -13.0970763476    -2.4990298536     0.0108521463
   42      H     -12.0213912811    -3.8314641549    -0.2494197702
   43      C     -13.9603081874    -4.1021200449    -1.0849642750
   44      H     -13.7102967619    -4.7368238179    -1.9437444609
   45      C     -15.3074839510    -3.3142611128    -1.5401079501
   46      H     -14.2733976618    -4.6565346045    -0.1925425825
   47      H     -15.0721506459    -2.6145197068    -2.3508712943
   48      H     -15.5796307413    -2.7811963466    -0.6209577558
   49      C     -16.4562192480    -4.3236191994    -1.9478241144
   50      H     -17.1671440656    -3.7681126892    -2.5723138427
   51      C     -17.3015157356    -4.7744147629    -0.7345289286
   52      H     -15.9970078227    -5.1572545739    -2.4927148642
   53      H     -18.2020168596    -5.3291313222    -1.0274850083
   54      H     -17.6288634762    -3.8923666520    -0.1688253076
   55      H     -16.7951871959    -5.4019684352     0.0089169661
   56      C       8.9533560468    -5.3924605625    -0.6669191685
   57      C       7.8488088051    -5.2217515422     0.2179264797
   58      N       9.0612826372    -4.6546265252    -1.8272186060
   59      C       6.9674907876    -4.1765790779     0.0103233197
   60      C       8.1975635837    -3.6887993222    -2.0836541936
   61      C       7.1713746684    -3.3262898788    -1.1453897247
   62      C       6.3652343275    -2.1097169739    -1.3097585714
   63      C       5.9862535524    -1.3032066172    -0.1827911288
   64      C       5.9878364463    -1.5665124634    -2.5510549498
   65      N       5.3430945897    -0.1455726780    -0.2567317240
   66      N       6.1236577833    -2.2485773348    -3.6899307445
   67      C       5.4186687825    -0.3095233854    -2.6755805632
   68      C       5.0243044046     0.4119956532    -1.5357748717
   69      S       5.6235200164    -1.1879219446    -4.9066403883
   70      N       5.2170070219     0.1120555216    -3.9695839478
   71      C       4.4012522324     1.7785756926    -1.6122143028
   72      S       4.3188723106     2.8553206192    -3.0003576353
   73      C       3.8124544930     2.3339058218    -0.5332190898
   74      C       3.4582089124     4.0539699000    -2.0467479581
   75      S       3.3982766885     1.6063535923     1.0123055783
   76      C       3.1856396525     3.5401533042    -0.7903497313
   77      C       2.9559034527     5.2790108849    -2.6086952959
   78      C       2.4182495449     3.0802411138     1.4164334932
   79      C       2.2044175048     3.8698412801     0.2412460885
   80      N       2.4956973497     6.2079270943    -1.7878524250
   81      S       3.0214925715     5.6851525853    -4.3264906815
   82      C       2.0605195132     7.3257049035    -2.4784601427
   83      C       2.2271065356     7.1914227671    -3.8883959823
   84      C      10.2100055653    -6.2711471596    -0.3971732664
   85      H       7.8773143403    -5.8645847360     1.0926000870
   86      H       6.2903078028    -4.0147575933     0.8443083389
   87      H       8.3409804909    -3.2603569598    -3.0745097496
   88      H       6.2145491831    -1.6481274942     0.8246460621
   89      H       1.9413310401     3.1472837311     2.3852817926
   90      H       1.5639191878     4.7418028334     0.1714538576
   91      H       1.6328146091     8.1953627775    -1.9974968412
   92      H       2.0013516458     7.9298505896    -4.6469861751
   93      H       9.9793942134    -7.3053146218    -0.6829512648
   94      C      10.7780296728    -6.1070331346     1.0295419119
   95      H      10.8462000807    -5.8839007911    -1.2013683849
   96      H      11.5743805668    -6.8420064218     1.2013252659
   97      H       9.9632211978    -6.4844140993     1.6588492744
   98      C      11.2281905078    -4.6400988504     1.3298767722
   99      H      11.8712972609    -4.1937642709     0.5609917695
  100      C      12.0153642859    -4.5303606942     2.6780636956
  101      H      10.3450339577    -4.0144264883     1.5037002553
  102      H      12.6076583927    -5.4504083188     2.5987348889
  103      H      11.3865638866    -4.6873325350     3.5633511625
  104      C      12.7849575898    -3.1583171696     2.8406174195
  105      H      13.4619365178    -3.1142994123     1.9787009687
  106      C      13.6417144852    -3.1688992664     4.0493976482
  107      H      12.0752820536    -2.3225686511     2.8014377423
  108      H      14.4229776755    -2.4444666724     3.7872998722
  109      H      14.1549805372    -4.1289732496     4.1884296831
  110      H      13.0291811267    -2.9459908014     4.9313181100
 ----------------------------------------------------------------

   10   -5663.4983151220      4.13E-06 Convergence criterion met
 Total energy in the final basis set = -5663.4983151220

                    Orbital Energies (a.u.)
 --------------------------------------------------------------

 Alpha MOs
 -- Occupied --
-88.991 -88.986 -88.929 -88.928 -88.925 -88.923 -88.906 -88.902
-14.393 -14.389 -14.380 -14.379 -14.353 -14.352 -14.348 -14.344
-14.327 -14.325 -10.269 -10.268 -10.267 -10.265 -10.259 -10.255
-10.252 -10.249 -10.239 -10.238 -10.238 -10.238 -10.237 -10.237
-10.235 -10.232 -10.232 -10.232 -10.231 -10.228 -10.227 -10.226
-10.226 -10.225 -10.225 -10.225 -10.222 -10.221 -10.220 -10.220
-10.220 -10.215 -10.207 -10.204 -10.202 -10.200 -10.199 -10.199
-10.189 -10.187 -10.185 -10.182 -10.181 -10.179 -10.178 -10.178
-10.177 -10.175 -10.172 -10.169  -8.047  -8.041  -7.989  -7.989
 -7.984  -7.982  -7.966  -7.961  -6.012  -6.006  -6.006  -6.005
 -6.001  -5.999  -5.953  -5.953  -5.950  -5.949  -5.949  -5.947
 -5.946  -5.946  -5.945  -5.943  -5.941  -5.939  -5.930  -5.927
 -5.926  -5.922  -5.922  -5.917  -1.053  -1.025  -0.980  -0.963
 -0.954  -0.941  -0.932  -0.932  -0.918  -0.912  -0.912  -0.898
 -0.843  -0.833  -0.827  -0.822  -0.817  -0.810  -0.807  -0.803
 -0.802  -0.800  -0.795  -0.792  -0.783  -0.782  -0.768  -0.765
 -0.751  -0.744  -0.739  -0.731  -0.722  -0.719  -0.709  -0.708
 -0.692  -0.688  -0.676  -0.672  -0.656  -0.651  -0.649  -0.639
 -0.636  -0.630  -0.622  -0.615  -0.614  -0.610  -0.595  -0.595
 -0.594  -0.591  -0.584  -0.582  -0.579  -0.577  -0.572  -0.557
 -0.552  -0.545  -0.542  -0.533  -0.527  -0.518  -0.515  -0.505
 -0.505  -0.502  -0.500  -0.496  -0.484  -0.482  -0.480  -0.474
 -0.470  -0.469  -0.467  -0.462  -0.461  -0.455  -0.452  -0.448
 -0.445  -0.442  -0.441  -0.440  -0.438  -0.437  -0.432  -0.430
 -0.427  -0.426  -0.425  -0.425  -0.421  -0.415  -0.415  -0.413
 -0.408  -0.407  -0.404  -0.404  -0.400  -0.398  -0.395  -0.395
 -0.394  -0.391  -0.390  -0.389  -0.388  -0.384  -0.382  -0.381
 -0.379  -0.374  -0.374  -0.370  -0.368  -0.358  -0.356  -0.354
 -0.353  -0.351  -0.350  -0.348  -0.346  -0.345  -0.343  -0.341
 -0.340  -0.335  -0.332  -0.330  -0.327  -0.325  -0.323  -0.320
 -0.316  -0.314  -0.309  -0.309  -0.306  -0.300  -0.297  -0.295
 -0.294  -0.292  -0.290  -0.289  -0.289  -0.286  -0.282  -0.282
 -0.276  -0.273  -0.271  -0.268  -0.256  -0.250  -0.247  -0.244
 -0.242  -0.241  -0.231  -0.222  -0.197  -0.188

          Ground-State Mulliken Net Atomic Charges

     Atom                 Charge (a.u.)
  ----------------------------------------
      1 C                     0.273741
      2 C                    -0.118101
      3 N                    -0.482996
      4 C                    -0.065897
      5 C                     0.065718
      6 C                     0.036326
      7 C                     0.044630
      8 C                     0.059840
      9 C                     0.231473
     10 N                    -0.536255
     11 N                    -0.555140
     12 C                     0.169850
     13 C                     0.303944
     14 S                     0.607236
     15 N                    -0.513131
     16 C                    -0.216357
     17 S                     0.324621
     18 C                    -0.109098
     19 C                    -0.227504
     20 S                     0.290520
     21 C                     0.175342
     22 C                     0.012163
     23 C                    -0.325969
     24 C                    -0.036721
     25 N                    -0.408150
     26 S                     0.256933
     27 C                     0.109740
     28 C                    -0.300612
     29 C                    -0.234051
     30 H                     0.088344
     31 H                     0.116530
     32 H                     0.104114
     33 H                     0.115466
     34 H                     0.126899
     35 H                     0.117247
     36 H                     0.112924
     37 H                     0.146271
     38 H                     0.117802
     39 C                    -0.162615
     40 H                     0.096599
     41 H                     0.110458
     42 H                     0.095488
     43 C                    -0.191603
     44 H                     0.085605
     45 C                    -0.185532
     46 H                     0.099348
     47 H                     0.089033
     48 H                     0.093161
     49 C                    -0.171427
     50 H                     0.095566
     51 C                    -0.323214
     52 H                     0.096005
     53 H                     0.099851
     54 H                     0.104058
     55 H                     0.102235
     56 C                     0.255533
     57 C                    -0.108598
     58 N                    -0.475580
     59 C                    -0.080492
     60 C                     0.107266
     61 C                     0.001522
     62 C                     0.041720
     63 C                     0.080545
     64 C                     0.239128
     65 N                    -0.511063
     66 N                    -0.569994
     67 C                     0.209427
     68 C                     0.258124
     69 S                     0.593474
     70 N                    -0.567107
     71 C                    -0.200762
     72 S                     0.325534
     73 C                    -0.119155
     74 C                    -0.238108
     75 S                     0.279951
     76 C                     0.172026
     77 C                     0.062498
     78 C                    -0.301054
     79 C                    -0.076455
     80 N                    -0.434704
     81 S                     0.269530
     82 C                     0.119079
     83 C                    -0.310932
     84 C                    -0.240775
     85 H                     0.090262
     86 H                     0.107113
     87 H                     0.122786
     88 H                     0.108962
     89 H                     0.137362
     90 H                     0.121160
     91 H                     0.120606
     92 H                     0.131031
     93 H                     0.107244
     94 C                    -0.191088
     95 H                     0.128823
     96 H                     0.096005
     97 H                     0.094302
     98 C                    -0.171430
     99 H                     0.103112
    100 C                    -0.184714
    101 H                     0.100469
    102 H                     0.086389
    103 H                     0.084665
    104 C                    -0.178508
    105 H                     0.092901
    106 C                    -0.305934
    107 H                     0.098761
    108 H                     0.099590
    109 H                     0.105328
    110 H                     0.103519
  ----------------------------------------
  Sum of atomic charges =     0.000000

                    Cartesian Multipole Moments
 -----------------------------------------------------------------
    Charge (ESU x 10^10)
                 0.0000
    Dipole Moment (Debye)
         X       0.0878      Y       1.3653      Z      -0.2448
       Tot       1.3899
    Quadrupole Moments (Debye-Ang)
        XX    -462.9328     XY       3.3634     YY    -415.5630
        XZ      26.0714     YZ      -9.3235     ZZ    -414.8569

 Total job time:  85.48s(wall), 956.33s(cpu)
        *  Thank you very much for using Q-Chem.  Have a nice day.  *
