 Q-Chem 4.4, Q-Chem, Inc., Pleasanton, CA (2016)
 Q-Chem 4.4.2 for Intel X86 Linux

User input:
--------------------------------------------------------------
$comment
SP
$end

$rem
MEM_STATIC 5000
MEM_TOTAL 20000
JOBTYPE SP
EXCHANGE B3LYP
BASIS 6-31g(d,p)
$end

$molecule
0 1
C         -12.570000      0.772000     -1.086000
C         -11.297000      1.234000     -1.531000
N         -12.625000     -0.314000     -0.315000
C         -10.154000      0.471000     -1.289000
C         -11.514000     -1.014000      0.023000
C         -10.230000     -0.740000     -0.516000
C          -9.074000     -1.615000     -0.053000
C          -9.029000     -2.250000      1.209000
C          -7.898000     -1.773000     -0.794000
N          -8.063000     -3.128000      1.633000
N          -7.754000     -1.276000     -2.040000
C          -6.799000     -2.496000     -0.321000
C          -6.877000     -3.201000      0.934000
S          -6.099000     -1.470000     -2.414000
N          -5.778000     -2.541000     -1.221000
C          -5.788000     -4.038000      1.442000
S          -4.100000     -3.980000      0.840000
C          -5.903000     -5.171000      2.307000
C          -3.616000     -5.318000      1.940000
S          -7.374000     -5.892000      2.975000
C          -4.718000     -5.820000      2.579000
C          -2.284000     -5.941000      1.936000
C          -6.318000     -7.053000      3.777000
C          -4.978000     -6.934000      3.491000
N          -1.313000     -5.316000      1.347000
S          -1.856000     -7.410000      2.681000
C          -0.107000     -5.892000      1.574000
C          -0.209000     -6.917000      2.456000
C         -13.850000      1.531000     -1.455000
H         -11.270000      2.138000     -2.132000
H          -9.203000      0.732000     -1.744000
H         -11.611000     -1.612000      0.928000
H          -9.890000     -2.126000      1.864000
H          -6.813000     -7.782000      4.406000
H          -4.358000     -7.687000      3.965000
H           0.756000     -5.551000      1.018000
H           0.586000     -7.497000      2.906000
H         -13.580000      2.578000     -1.641000
C         -15.018000      1.233000     -0.505000
H         -14.151000      1.262000     -2.475000
H         -14.782000      1.201000      0.565000
H         -15.272000      0.190000     -0.732000
C         -16.253000      2.110000     -0.724000
H         -15.858000      3.118000     -0.905000
C         -17.354000      2.171000      0.396000
H         -16.746000      2.018000     -1.700000
H         -16.937000      2.781000      1.208000
H         -17.500000      1.144000      0.753000
C         -18.729000      2.664000     -0.093000
H         -19.117000      2.053000     -0.918000
C         -18.812000      4.107000     -0.485000
H         -19.346000      2.511000      0.801000
H         -19.864000      4.416000     -0.515000
H         -18.431000      4.370000     -1.479000
H         -18.289000      4.659000      0.306000
C         -12.081000      7.156000     -3.163000
C         -12.047000      6.767000     -1.792000
N         -10.964000      7.049000     -3.965000
C         -10.938000      6.102000     -1.302000
C          -9.868000      6.473000     -3.505000
C          -9.820000      5.880000     -2.197000
C          -8.698000      5.034000     -1.770000
C          -8.906000      3.863000     -0.964000
C          -7.365000      5.212000     -2.182000
N          -7.961000      2.999000     -0.618000
N          -6.962000      6.320000     -2.807000
C          -6.375000      4.274000     -1.938000
C          -6.625000      3.173000     -1.101000
S          -5.333000      6.058000     -3.172000
N          -5.155000      4.554000     -2.509000
C          -5.588000      2.126000     -0.801000
S          -4.048000      1.864000     -1.609000
C          -5.774000      1.229000      0.189000
C          -3.694000      0.513000     -0.543000
S          -6.998000      1.194000      1.450000
C          -4.685000      0.407000      0.418000
C          -2.446000     -0.201000     -0.582000
C          -6.062000     -0.116000      2.289000
C          -4.742000     -0.209000      1.742000
N          -2.337000     -1.320000      0.114000
S          -1.074000      0.250000     -1.599000
C          -1.085000     -1.891000     -0.035000
C          -0.243000     -1.134000     -0.902000
C         -13.349000      7.587000     -3.957000
H         -12.988000      6.905000     -1.268000
H         -11.095000      5.676000     -0.315000
H          -9.038000      6.548000     -4.206000
H          -9.901000      3.648000     -0.577000
H          -6.464000     -0.556000      3.192000
H          -3.939000     -0.828000      2.126000
H          -0.782000     -2.803000      0.462000
H           0.765000     -1.378000     -1.212000
H         -13.526000      8.655000     -3.777000
C         -14.571000      6.678000     -3.701000
H         -12.927000      7.530000     -4.967000
H         -15.461000      7.105000     -4.180000
H         -14.772000      6.838000     -2.635000
C         -14.310000      5.193000     -4.115000
H         -13.888000      5.067000     -5.120000
C         -15.617000      4.333000     -4.077000
H         -13.671000      4.711000     -3.366000
H         -16.313000      5.072000     -4.493000
H         -15.989000      4.151000     -3.061000
C         -15.471000      2.944000     -4.819000
H         -15.195000      3.205000     -5.848000
C         -16.774000      2.243000     -4.897000
H         -14.671000      2.353000     -4.356000
H         -16.647000      1.614000     -5.787000
H         -17.602000      2.926000     -5.126000
H         -16.969000      1.731000     -3.947000
$end

--------------------------------------------------------------

             Standard Nuclear Orientation (Angstroms)
    I     Atom           X                Y                Z
 ----------------------------------------------------------------
    1      C       3.8742370243    -2.6377030266     0.3821085764
    2      C       3.3246191938    -1.3346597734     0.5609842892
    3      N       3.0473725644    -3.6560008990     0.1449870718
    4      C       1.9417475163    -1.1652303369     0.6393525842
    5      C       1.7011973521    -3.4973042553     0.1104519719
    6      C       1.0537933738    -2.2818961286     0.4538237450
    7      C      -0.4660249821    -2.2517092842     0.3791851517
    8      C      -1.2234435845    -3.0632307591    -0.4958256805
    9      C      -1.2423979997    -1.3309503381     1.0908514365
   10      N      -2.5928915517    -3.1485890962    -0.5296224175
   11      N      -0.7144549930    -0.4914234655     2.0055818950
   12      C      -2.6296500291    -1.2401519687     0.9440643011
   13      C      -3.3360941225    -2.1780823237     0.1077883945
   14      S      -1.9681462373     0.6028678714     2.3894070294
   15      N      -3.1790274482    -0.2943833436     1.7553424034
   16      C      -4.7947386373    -2.1818449987    -0.0221963033
   17      S      -5.8585701448    -0.8216153828     0.4606596955
   18      C      -5.6305578803    -3.3025327783    -0.3232014425
   19      C      -7.3291191564    -1.7586397499     0.0202383748
   20      S      -5.1505946306    -4.9843177723    -0.5899232320
   21      C      -6.9832552633    -3.0386846114    -0.3212178011
   22      C      -8.7020547714    -1.2885921519     0.2578768667
   23      C      -6.8606097272    -5.3240115356    -0.8482205734
   24      C      -7.7118090298    -4.2585973128    -0.6695888823
   25      N      -8.8884793545    -0.0297774285     0.5048958272
   26      S     -10.1160148097    -2.2335889524     0.1956831606
   27      C     -10.2003294732     0.3117798271     0.5162495560
   28      C     -10.9845232575    -0.7335143595     0.1538227743
   29      C       5.3907859181    -2.8590781338     0.4235152752
   30      H       4.0160498632    -0.5129585420     0.7218467018
   31      H       1.5125314677    -0.2077453909     0.9196081136
   32      H       1.1675347451    -4.2608034381    -0.4537387934
   33      H      -0.6799535503    -3.7688670239    -1.1222584737
   34      H      -7.1035173305    -6.3490361166    -1.0980755406
   35      H      -8.7601423675    -4.5068698581    -0.7938585740
   36      H     -10.4881461726     1.2976158633     0.8560654726
   37      H     -12.0515584248    -0.7415651855    -0.0258884828
   38      H       5.8773836091    -1.9167491844     0.1425458141
   39      C       5.8273630602    -4.1488986772    -0.2845040501
   40      H       5.7234281587    -2.9032376863     1.4679103507
   41      H       5.3463363321    -4.3661061690    -1.2452611435
   42      H       5.4414167342    -4.9417440249     0.3684398127
   43      C       7.3422809544    -4.3107420525    -0.4299189581
   44      H       7.7104735557    -3.3130346052    -0.7016983873
   45      C       7.9024429672    -5.3715412290    -1.4454216053
   46      H       7.9144182037    -4.3785573486     0.5039702504
   47      H       7.7466576442    -4.9532012381    -2.4484448280
   48      H       7.2898918780    -6.2743600856    -1.3305596216
   49      C       9.3596819640    -5.7947467244    -1.1805695429
   50      H       9.4966818847    -6.1901791127    -0.1659985755
   51      C      10.4061609903    -4.7540432983    -1.4347742369
   52      H       9.4884060769    -6.6024275796    -1.9116069830
   53      H      11.3877129604    -5.2369696958    -1.5149167636
   54      H      10.5473175917    -3.9966973885    -0.6544743031
   55      H      10.1414981898    -4.2971205873    -2.3965898316
   56      C       7.9564094448     2.6490575783    -0.4512800701
   57      C       7.3281463802     1.9590807300    -1.5289328298
   58      N       7.2714393038     3.5848443735     0.2953530258
   59      C       5.9642672586     2.0897815014    -1.7159008748
   60      C       5.9795383876     3.7764097747     0.0981558664
   61      C       5.2332248516     2.9798546529    -0.8363670299
   62      C       3.7660676387     3.0187198574    -0.8899226897
   63      C       2.9922174163     1.8301608178    -1.1193224341
   64      C       2.9896783850     4.1605426261    -0.6220094737
   65      N       1.6677831751     1.7659269566    -1.0879384916
   66      N       3.5313045492     5.3769434991    -0.5342141753
   67      C       1.6137378704     4.1102986180    -0.4679210577
   68      C       0.9056523908     2.9304734737    -0.7540985942
   69      S       2.2531484229     6.4054178577    -0.1291618200
   70      N       1.0262912656     5.2977016046    -0.0966776955
   71      C      -0.5867718670     2.8200125275    -0.6056189176
   72      S      -1.6803524549     3.9353325507     0.2026203685
   73      C      -1.2590229676     1.7689816528    -1.1181787268
   74      C      -3.0527412658     2.9143291139    -0.1985952017
   75      S      -0.7032156994     0.5155624019    -2.2179698262
   76      C      -2.6341068011     1.8672500276    -1.0018439626
   77      C      -4.4091467030     3.2790747950     0.1111561150
   78      C      -2.4244071428    -0.0159736478    -2.4439929292
   79      C      -3.3203517711     0.9801631188    -1.9387674692
   80      N      -5.3585260572     2.3724936308    -0.0477382984
   81      S      -4.8867964106     4.8291869470     0.8104965706
   82      C      -6.6013725661     2.8719628377     0.3009866168
   83      C      -6.5368797525     4.2250440812     0.7467599062
   84      C       9.3773321531     2.3560512169     0.1136508365
   85      H       7.9748180077     1.2527938833    -2.0408661228
   86      H       5.5584030639     1.3745589720    -2.4258480481
   87      H       5.5928087096     4.6099016717     0.6826705487
   88      H       3.5004596128     0.8966403831    -1.3564900284
   89      H      -2.6335601389    -0.8758620070    -3.0664558066
   90      H      -4.3995375936     0.9730668918    -2.0423705775
   91      H      -7.5162243827     2.2987147113     0.2303131482
   92      H      -7.3552725750     4.8343378785     1.1082765127
   93      H      10.1127174035     2.8944265533    -0.4976702991
   94      C       9.6667036622     0.8497953685     0.2940904355
   95      H       9.2970122697     2.9315751700     1.0430344471
   96      H      10.7190686627     0.7017142292     0.5669821392
   97      H       9.6299664837     0.4718250018    -0.7345716963
   98      C       8.6767410281     0.1650931169     1.2920377337
   99      H       8.5530093494     0.6927448378     2.2461127481
  100      C       9.1175738133    -1.2930099112     1.6510572525
  101      H       7.7061452549     0.0203418968     0.8035329443
  102      H      10.1986193313    -1.1237951793     1.7304295565
  103      H       9.0132289293    -1.9973591425     0.8163307670
  104      C       8.3594621504    -1.8817649250     2.9079722218
  105      H       8.5870961544    -1.1840687018     3.7231659046
  106      C       8.9252114180    -3.1924477482     3.3046235838
  107      H       7.2785200497    -1.8981445441     2.7210340421
  108      H       8.6842235484    -3.2359168193     4.3741586634
  109      H      10.0207432638    -3.2102092867     3.2413108480
  110      H       8.5051299278    -3.9783628114     2.6654537667
 ----------------------------------------------------------------

   10   -5663.4877962639      4.90E-06 Convergence criterion met
 Total energy in the final basis set = -5663.4877962639

                    Orbital Energies (a.u.)
 --------------------------------------------------------------

 Alpha MOs
 -- Occupied --
-88.989 -88.977 -88.930 -88.929 -88.928 -88.920 -88.909 -88.907
-14.392 -14.383 -14.377 -14.369 -14.356 -14.349 -14.343 -14.338
-14.328 -14.321 -10.269 -10.268 -10.266 -10.263 -10.255 -10.252
-10.248 -10.244 -10.242 -10.242 -10.242 -10.240 -10.239 -10.236
-10.233 -10.233 -10.231 -10.231 -10.230 -10.230 -10.229 -10.228
-10.227 -10.226 -10.225 -10.224 -10.223 -10.221 -10.219 -10.218
-10.213 -10.212 -10.210 -10.207 -10.206 -10.204 -10.202 -10.193
-10.191 -10.190 -10.187 -10.182 -10.179 -10.178 -10.176 -10.176
-10.176 -10.172 -10.169 -10.169  -8.044  -8.031  -7.991  -7.989
 -7.988  -7.977  -7.969  -7.965  -6.009  -6.004  -6.002  -5.997
 -5.991  -5.989  -5.955  -5.953  -5.952  -5.952  -5.949  -5.949
 -5.948  -5.945  -5.945  -5.941  -5.938  -5.934  -5.933  -5.930
 -5.930  -5.927  -5.925  -5.921  -1.028  -1.014  -0.986  -0.962
 -0.945  -0.938  -0.934  -0.929  -0.916  -0.906  -0.901  -0.885
 -0.838  -0.837  -0.825  -0.816  -0.813  -0.810  -0.805  -0.801
 -0.801  -0.797  -0.795  -0.785  -0.785  -0.781  -0.767  -0.766
 -0.750  -0.745  -0.738  -0.734  -0.726  -0.722  -0.710  -0.708
 -0.693  -0.691  -0.674  -0.668  -0.654  -0.653  -0.639  -0.637
 -0.632  -0.629  -0.618  -0.614  -0.612  -0.609  -0.604  -0.597
 -0.589  -0.588  -0.582  -0.580  -0.579  -0.574  -0.573  -0.561
 -0.548  -0.541  -0.536  -0.533  -0.520  -0.517  -0.516  -0.506
 -0.503  -0.499  -0.496  -0.493  -0.484  -0.477  -0.476  -0.471
 -0.467  -0.465  -0.464  -0.463  -0.461  -0.458  -0.450  -0.447
 -0.445  -0.441  -0.440  -0.439  -0.436  -0.435  -0.434  -0.431
 -0.430  -0.427  -0.426  -0.423  -0.420  -0.415  -0.413  -0.409
 -0.409  -0.408  -0.406  -0.401  -0.399  -0.398  -0.397  -0.395
 -0.393  -0.392  -0.390  -0.390  -0.386  -0.386  -0.384  -0.383
 -0.377  -0.377  -0.373  -0.371  -0.370  -0.356  -0.356  -0.354
 -0.353  -0.350  -0.348  -0.347  -0.346  -0.344  -0.343  -0.340
 -0.338  -0.332  -0.329  -0.328  -0.328  -0.326  -0.325  -0.318
 -0.315  -0.312  -0.303  -0.301  -0.300  -0.297  -0.297  -0.293
 -0.292  -0.290  -0.290  -0.287  -0.286  -0.283  -0.279  -0.275
 -0.273  -0.270  -0.268  -0.260  -0.253  -0.249  -0.247  -0.243
 -0.241  -0.237  -0.227  -0.224  -0.193  -0.189

          Ground-State Mulliken Net Atomic Charges

     Atom                 Charge (a.u.)
  ----------------------------------------
      1 C                     0.297408
      2 C                    -0.146916
      3 N                    -0.504625
      4 C                    -0.031518
      5 C                     0.065569
      6 C                     0.024626
      7 C                     0.075393
      8 C                     0.045843
      9 C                     0.240180
     10 N                    -0.535362
     11 N                    -0.587198
     12 C                     0.225132
     13 C                     0.301415
     14 S                     0.591695
     15 N                    -0.559715
     16 C                    -0.232091
     17 S                     0.400793
     18 C                    -0.132052
     19 C                    -0.251692
     20 S                     0.283249
     21 C                     0.159502
     22 C                     0.079364
     23 C                    -0.294996
     24 C                    -0.092766
     25 N                    -0.439638
     26 S                     0.275069
     27 C                     0.129438
     28 C                    -0.321559
     29 C                    -0.257028
     30 H                     0.088366
     31 H                     0.125663
     32 H                     0.098888
     33 H                     0.107339
     34 H                     0.128762
     35 H                     0.119937
     36 H                     0.115729
     37 H                     0.129218
     38 H                     0.103059
     39 C                    -0.162684
     40 H                     0.129521
     41 H                     0.105939
     42 H                     0.115222
     43 C                    -0.203057
     44 H                     0.090111
     45 C                    -0.180994
     46 H                     0.093769
     47 H                     0.091798
     48 H                     0.094787
     49 C                    -0.177993
     50 H                     0.094867
     51 C                    -0.312001
     52 H                     0.093716
     53 H                     0.100106
     54 H                     0.106156
     55 H                     0.098439
     56 C                     0.254907
     57 C                    -0.109283
     58 N                    -0.474590
     59 C                    -0.081731
     60 C                     0.108103
     61 C                    -0.001733
     62 C                     0.042846
     63 C                     0.076886
     64 C                     0.238682
     65 N                    -0.517480
     66 N                    -0.568495
     67 C                     0.209939
     68 C                     0.255467
     69 S                     0.596571
     70 N                    -0.567475
     71 C                    -0.198808
     72 S                     0.320664
     73 C                    -0.128308
     74 C                    -0.241088
     75 S                     0.280894
     76 C                     0.169583
     77 C                     0.062503
     78 C                    -0.310016
     79 C                    -0.076574
     80 N                    -0.427299
     81 S                     0.264114
     82 C                     0.121027
     83 C                    -0.314172
     84 C                    -0.241082
     85 H                     0.091997
     86 H                     0.109104
     87 H                     0.123254
     88 H                     0.112959
     89 H                     0.143504
     90 H                     0.135574
     91 H                     0.142083
     92 H                     0.129721
     93 H                     0.108292
     94 C                    -0.190912
     95 H                     0.129230
     96 H                     0.097191
     97 H                     0.095436
     98 C                    -0.175028
     99 H                     0.103986
    100 C                    -0.194464
    101 H                     0.098085
    102 H                     0.086727
    103 H                     0.094958
    104 C                    -0.182259
    105 H                     0.093710
    106 C                    -0.314656
    107 H                     0.097821
    108 H                     0.100742
    109 H                     0.105318
    110 H                     0.111392
  ----------------------------------------
  Sum of atomic charges =     0.000000

                    Cartesian Multipole Moments
 -----------------------------------------------------------------
    Charge (ESU x 10^10)
                 0.0000
    Dipole Moment (Debye)
         X      -3.4451      Y       0.9882      Z      -0.8222
       Tot       3.6771
    Quadrupole Moments (Debye-Ang)
        XX    -368.2511     XY      -6.2091     YY    -437.3096
        XZ      -5.4785     YZ      10.7147     ZZ    -448.8508

 Total job time:  105.74s(wall), 1200.57s(cpu)
        *  Thank you very much for using Q-Chem.  Have a nice day.  *
