 Q-Chem 4.4, Q-Chem, Inc., Pleasanton, CA (2016)
 Q-Chem 4.4.2 for Intel X86 Linux

User input:
--------------------------------------------------------------
$comment
SP
$end

$rem
MEM_STATIC 5000
MEM_TOTAL 20000
JOBTYPE SP
EXCHANGE B3LYP
BASIS 6-31g(d,p)
$end

$molecule
0 1
C           1.421000      6.590000      3.260000
C           0.215000      5.903000      2.952000
N           2.590000      5.956000      3.320000
C           0.218000      4.522000      2.806000
C           2.597000      4.592000      3.132000
C           1.424000      3.846000      2.875000
C           1.588000      2.417000      2.725000
C           1.895000      1.865000      1.446000
C           1.486000      1.494000      3.801000
N           2.231000      0.592000      1.235000
N           1.079000      1.865000      5.056000
C           1.963000      0.214000      3.610000
C           2.436000     -0.182000      2.333000
S           1.359000      0.519000      5.905000
N           1.932000     -0.518000      4.749000
C           3.288000     -1.368000      2.038000
S           3.372000     -2.348000      0.635000
C           4.361000     -1.607000      2.897000
C           4.929000     -3.038000      1.148000
S           4.864000     -0.832000      4.367000
C           5.314000     -2.457000      2.319000
C           5.618000     -4.090000      0.419000
C           6.395000     -1.852000      4.275000
C           6.465000     -2.577000      3.085000
N           4.845000     -4.622000     -0.498000
S           7.275000     -4.832000      0.633000
C           5.540000     -5.590000     -1.185000
C           6.880000     -5.764000     -0.775000
C           1.436000      8.057000      3.520000
H          -0.693000      6.474000      2.780000
H          -0.711000      4.043000      2.509000
H           3.560000      4.141000      3.368000
H           1.782000      2.518000      0.581000
H           7.230000     -1.742000      4.954000
H           7.352000     -3.138000      2.812000
H           4.956000     -6.009000     -1.994000
H           7.588000     -6.435000     -1.244000
H           2.252000      8.533000      2.962000
C           1.676000      8.317000      5.001000
H           0.532000      8.587000      3.196000
H           2.617000      7.836000      5.294000
H           0.801000      7.880000      5.498000
C           1.856000      9.765000      5.366000
H           2.822000     10.093000      4.963000
C           1.917000      9.824000      6.926000
H           0.963000     10.333000      5.077000
H           2.740000      9.239000      7.353000
H           1.022000      9.357000      7.355000
C           2.087000     11.250000      7.411000
H           2.903000     11.649000      6.796000
C           2.370000     11.305000      8.904000
H           1.189000     11.866000      7.276000
H           1.384000     11.400000      9.375000
H           2.820000     12.236000      9.271000
H           2.820000     10.374000      9.272000
C         -12.081000      7.156000     -3.163000
C         -12.047000      6.767000     -1.792000
N         -10.964000      7.049000     -3.965000
C         -10.938000      6.102000     -1.302000
C          -9.868000      6.473000     -3.505000
C          -9.820000      5.880000     -2.197000
C          -8.698000      5.034000     -1.770000
C          -8.906000      3.863000     -0.964000
C          -7.365000      5.212000     -2.182000
N          -7.961000      2.999000     -0.618000
N          -6.962000      6.320000     -2.807000
C          -6.375000      4.274000     -1.938000
C          -6.625000      3.173000     -1.101000
S          -5.333000      6.058000     -3.172000
N          -5.155000      4.554000     -2.509000
C          -5.588000      2.126000     -0.801000
S          -4.048000      1.864000     -1.609000
C          -5.774000      1.229000      0.189000
C          -3.694000      0.513000     -0.543000
S          -6.998000      1.194000      1.450000
C          -4.685000      0.407000      0.418000
C          -2.446000     -0.201000     -0.582000
C          -6.062000     -0.116000      2.289000
C          -4.742000     -0.209000      1.742000
N          -2.337000     -1.320000      0.114000
S          -1.074000      0.250000     -1.599000
C          -1.085000     -1.891000     -0.035000
C          -0.243000     -1.134000     -0.902000
C         -13.349000      7.587000     -3.957000
H         -12.988000      6.905000     -1.268000
H         -11.095000      5.676000     -0.315000
H          -9.038000      6.548000     -4.206000
H          -9.901000      3.648000     -0.577000
H          -6.464000     -0.556000      3.192000
H          -3.939000     -0.828000      2.126000
H          -0.782000     -2.803000      0.462000
H           0.765000     -1.378000     -1.212000
H         -13.526000      8.655000     -3.777000
C         -14.571000      6.678000     -3.701000
H         -12.927000      7.530000     -4.967000
H         -15.461000      7.105000     -4.180000
H         -14.772000      6.838000     -2.635000
C         -14.310000      5.193000     -4.115000
H         -13.888000      5.067000     -5.120000
C         -15.617000      4.333000     -4.077000
H         -13.671000      4.711000     -3.366000
H         -16.313000      5.072000     -4.493000
H         -15.989000      4.151000     -3.061000
C         -15.471000      2.944000     -4.819000
H         -15.195000      3.205000     -5.848000
C         -16.774000      2.243000     -4.897000
H         -14.671000      2.353000     -4.356000
H         -16.647000      1.614000     -5.787000
H         -17.602000      2.926000     -5.126000
H         -16.969000      1.731000     -3.947000
$end

--------------------------------------------------------------

             Standard Nuclear Orientation (Angstroms)
    I     Atom           X                Y                Z
 ----------------------------------------------------------------
    1      C       2.7194268034    -5.3740881486     1.1851677724
    2      C       1.7611456076    -4.4729903905     0.6457338283
    3      N       3.9837154805    -5.0099302610     1.3878502177
    4      C       2.1543712940    -3.2111316723     0.2196210089
    5      C       4.3617575293    -3.7427105901     1.0042781709
    6      C       3.4678790020    -2.8200081803     0.4142820342
    7      C       4.0188792867    -1.5359006840     0.0415842688
    8      C       4.0605018922    -0.4745211430     0.9937055997
    9      C       4.5625679421    -1.2529549064    -1.2407781343
   10      N       4.6963897104     0.6823659099     0.8060755664
   11      N       4.4812296739    -2.1334141217    -2.2879126321
   12      C       5.3330288360    -0.1182920367    -1.3868609298
   13      C       5.4742443812     0.7858369839    -0.3034021702
   14      S       5.4278104892    -1.4247379128    -3.3891300453
   15      N       5.8997782853    -0.0401660706    -2.6143776894
   16      C       6.5169040279     1.8411732915    -0.1668329967
   17      S       6.4552240607     3.3614945834     0.6210018534
   18      C       7.8249024881     1.4864734810    -0.4979811094
   19      C       8.2282122255     3.5015116863     0.6003577667
   20      S       8.4973008184     0.0332274408    -1.1691669495
   21      C       8.7613333494     2.3772704723     0.0445785301
   22      C       8.9445831161     4.6749504876     1.0722900995
   23      C      10.1587903920     0.7571454324    -0.8401986561
   24      C      10.0717446641     1.9552262732    -0.1305153887
   25      N       8.1301693586     5.6835407052     1.2745720925
   26      S      10.7281440441     4.9929580628     1.3168112602
   27      C       8.8386954377     6.7632158137     1.7481863398
   28      C      10.2216809684     6.5371051559     1.9219706672
   29      C       2.3513789215    -6.7682263780     1.5604454751
   30      H       0.7143315620    -4.7622414592     0.6211742426
   31      H       1.3812747103    -2.5310723376    -0.1275561414
   32      H       5.4401239913    -3.5954484699     1.0479318266
   33      H       3.4773594321    -0.5996816119     1.9056720071
   34      H      11.0863472369     0.2207383117    -0.9894357171
   35      H      10.9548898172     2.4562772974     0.2503015093
   36      H       8.1917968863     7.5967706526     1.9886163600
   37      H      10.9172672769     7.2523392654     2.3415726882
   38      H       2.7521242077    -7.0126689153     2.5521344695
   39      C       2.9552664771    -7.7483038090     0.5637865317
   40      H       1.2726997720    -6.9482967804     1.6448133756
   41      H       4.0416249740    -7.6001711615     0.5398504725
   42      H       2.4700310789    -7.4999212768    -0.3882931530
   43      C       2.7741079582    -9.1990413070     0.9171578704
   44      H       3.4050905004    -9.4113381683     1.7889032886
   45      C       3.3068278568   -10.0209821549    -0.2999800644
   46      H       1.7043797546    -9.4304407913     0.9928536363
   47      H       4.3633444954    -9.8332529081    -0.5245091765
   48      H       2.7915569194    -9.7108476416    -1.2172954108
   49      C       3.1619185001   -11.5101364082    -0.0570358563
   50      H       3.5688767014   -11.6603003957     0.9504946888
   51      C       3.8729268303   -12.3249470612    -1.1260137579
   52      H       2.1215835987   -11.8575999101    -0.0895536643
   53      H       3.1118650014   -12.5080442591    -1.8943381091
   54      H       4.0972741734   -13.3662358896    -0.8626967523
   55      H       4.6868645770   -11.7611225808    -1.5996088379
   56      C     -11.5699446516    -0.9509832840     0.8255905531
   57      C     -10.9797700234    -1.2906265194    -0.4267889344
   58      N     -10.7934621433    -0.6127972522     1.9141892497
   59      C      -9.6223200417    -1.1022084353    -0.6112724649
   60      C      -9.4853495918    -0.4847458287     1.7836657442
   61      C      -8.8381717470    -0.6194981610     0.5078053889
   62      C      -7.4318909453    -0.2458910274     0.3085040679
   63      C      -6.9904306504     0.3968659327    -0.8981927864
   64      C      -6.4283794525    -0.3725340040     1.2858695269
   65      N      -5.7624076527     0.8488104094    -1.1148554440
   66      N      -6.6180124618    -1.0750556542     2.4044403350
   67      C      -5.1692174708     0.1872167826     1.1420983174
   68      C      -4.7775643959     0.7599530306    -0.0801336815
   69      S      -5.1957985024    -0.8840658956     3.2968193834
   70      N      -4.3495990344     0.0652018624     2.2403601158
   71      C      -3.4240741431     1.3801430962    -0.2922808432
   72      S      -2.2224872106     1.7994885587     0.9215750900
   73      C      -2.9910625789     1.6937435961    -1.5306106505
   74      C      -1.1390847742     2.3966337613    -0.3260345315
   75      S      -3.6720141448     1.2675068554    -3.0939881500
   76      C      -1.6849299111     2.1478313823    -1.5738279690
   77      C       0.1895772204     2.8678487905    -0.0406668732
   78      C      -2.1538572409     1.8640663663    -3.8911288936
   79      C      -1.1191973495     2.0388452779    -2.9168654583
   80      N       0.8627923975     3.4780312733    -1.0013523904
   81      S       0.9488364852     2.7966219373     1.5526084025
   82      C       2.1147360547     3.8792195524    -0.5684193195
   83      C       2.3513625138     3.5402104109     0.7964186639
   84      C     -13.0922401649    -0.7680859666     1.0961195566
   85      H     -11.6973500155    -1.5426244920    -1.2018224670
   86      H      -9.3134102916    -1.1970840532    -1.6485127376
   87      H      -8.9907373600    -0.3152925104     2.7389512057
   88      H      -7.6881831709     0.5233495752    -1.7247291185
   89      H      -2.0861866299     1.8544573827    -4.9709165375
   90      H      -0.0834874339     2.2795469968    -3.1285105697
   91      H       2.8324009267     4.3828237821    -1.2023766613
   92      H       3.2305176085     3.7701544283     1.3845615619
   93      H     -13.5310542102    -1.7538740587     1.2961622301
   94      C     -13.8149172907     0.0506594239     0.0041054737
   95      H     -13.0188346849    -0.2801959440     2.0748983678
   96      H     -14.8978605186     0.0333892802     0.1796210205
   97      H     -13.7056128338    -0.5824006974    -0.8845139152
   98      C     -13.2436108398     1.4994795344    -0.1347153703
   99      H     -13.1467761688     2.0444225100     0.8127260262
  100      C     -14.1271817023     2.3937453756    -1.0668549179
  101      H     -12.2815375120     1.4649983635    -0.6589976997
  102      H     -15.1154533889     2.0511986201    -0.7358355926
  103      H     -14.0783627481     2.1024579049    -2.1235158471
  104      C     -13.7934859076     3.9352955021    -0.9507888848
  105      H     -13.9572255884     4.1774005075     0.1064303371
  106      C     -14.7607497705     4.7486726845    -1.7241660107
  107      H     -12.7441549609     4.1136032382    -1.2167981243
  108      H     -14.7316906641     5.7097586756    -1.1956404333
  109      H     -15.7896819846     4.3802418967    -1.6238103765
  110      H     -14.4703625699     4.7510330510    -2.7816813545
 ----------------------------------------------------------------

    9   -5663.4803921328      9.12E-06 Convergence criterion met
 Total energy in the final basis set = -5663.4803921328

                    Orbital Energies (a.u.)
 --------------------------------------------------------------

 Alpha MOs
 -- Occupied --
-88.992 -88.987 -88.937 -88.928 -88.926 -88.925 -88.917 -88.904
-14.390 -14.390 -14.389 -14.381 -14.352 -14.352 -14.344 -14.342
-14.328 -14.326 -10.273 -10.268 -10.266 -10.266 -10.257 -10.256
-10.252 -10.249 -10.240 -10.240 -10.239 -10.238 -10.238 -10.238
-10.238 -10.235 -10.233 -10.233 -10.231 -10.231 -10.230 -10.229
-10.227 -10.226 -10.226 -10.222 -10.221 -10.221 -10.219 -10.216
-10.209 -10.209 -10.208 -10.207 -10.205 -10.204 -10.200 -10.197
-10.189 -10.185 -10.180 -10.178 -10.178 -10.176 -10.175 -10.173
-10.172 -10.172 -10.169 -10.168  -8.048  -8.041  -7.996  -7.987
 -7.986  -7.985  -7.976  -7.963  -6.013  -6.007  -6.007  -6.006
 -6.001  -5.999  -5.961  -5.957  -5.953  -5.951  -5.950  -5.949
 -5.947  -5.947  -5.945  -5.944  -5.943  -5.941  -5.941  -5.937
 -5.932  -5.928  -5.924  -5.919  -1.041  -1.026  -0.970  -0.961
 -0.961  -0.942  -0.935  -0.932  -0.918  -0.912  -0.907  -0.899
 -0.847  -0.839  -0.834  -0.823  -0.813  -0.810  -0.808  -0.807
 -0.803  -0.799  -0.799  -0.792  -0.785  -0.783  -0.769  -0.765
 -0.748  -0.744  -0.743  -0.732  -0.727  -0.723  -0.714  -0.709
 -0.691  -0.689  -0.673  -0.672  -0.653  -0.652  -0.640  -0.638
 -0.637  -0.629  -0.629  -0.616  -0.612  -0.610  -0.601  -0.596
 -0.595  -0.588  -0.580  -0.578  -0.577  -0.572  -0.572  -0.570
 -0.548  -0.545  -0.539  -0.534  -0.527  -0.522  -0.515  -0.508
 -0.504  -0.503  -0.500  -0.495  -0.495  -0.482  -0.482  -0.478
 -0.474  -0.470  -0.469  -0.467  -0.462  -0.461  -0.448  -0.447
 -0.445  -0.442  -0.440  -0.438  -0.436  -0.435  -0.433  -0.430
 -0.429  -0.425  -0.424  -0.423  -0.421  -0.417  -0.415  -0.413
 -0.409  -0.407  -0.405  -0.404  -0.402  -0.396  -0.395  -0.394
 -0.393  -0.390  -0.389  -0.388  -0.388  -0.384  -0.384  -0.383
 -0.382  -0.376  -0.375  -0.371  -0.369  -0.368  -0.362  -0.353
 -0.353  -0.350  -0.348  -0.348  -0.346  -0.344  -0.342  -0.342
 -0.336  -0.334  -0.334  -0.329  -0.328  -0.325  -0.322  -0.321
 -0.320  -0.316  -0.311  -0.309  -0.308  -0.304  -0.302  -0.299
 -0.295  -0.295  -0.293  -0.292  -0.288  -0.285  -0.285  -0.280
 -0.279  -0.272  -0.268  -0.258  -0.254  -0.248  -0.247  -0.245
 -0.243  -0.241  -0.238  -0.223  -0.196  -0.188

          Ground-State Mulliken Net Atomic Charges

     Atom                 Charge (a.u.)
  ----------------------------------------
      1 C                     0.290454
      2 C                    -0.123537
      3 N                    -0.481721
      4 C                    -0.048705
      5 C                     0.075534
      6 C                     0.013376
      7 C                    -0.047071
      8 C                     0.084439
      9 C                     0.234058
     10 N                    -0.480745
     11 N                    -0.524787
     12 C                     0.221919
     13 C                     0.235526
     14 S                     0.615304
     15 N                    -0.544335
     16 C                    -0.190412
     17 S                     0.346673
     18 C                    -0.128024
     19 C                    -0.251838
     20 S                     0.258402
     21 C                     0.165120
     22 C                     0.076294
     23 C                    -0.307664
     24 C                    -0.071630
     25 N                    -0.422181
     26 S                     0.275009
     27 C                     0.118375
     28 C                    -0.321888
     29 C                    -0.226574
     30 H                     0.089873
     31 H                     0.105183
     32 H                     0.108956
     33 H                     0.116286
     34 H                     0.128710
     35 H                     0.112694
     36 H                     0.116048
     37 H                     0.137215
     38 H                     0.109978
     39 C                    -0.168179
     40 H                     0.089739
     41 H                     0.116738
     42 H                     0.089248
     43 C                    -0.175627
     44 H                     0.098462
     45 C                    -0.178341
     46 H                     0.091924
     47 H                     0.091606
     48 H                     0.089071
     49 C                    -0.165892
     50 H                     0.089899
     51 C                    -0.324178
     52 H                     0.090909
     53 H                     0.100229
     54 H                     0.099768
     55 H                     0.101370
     56 C                     0.256188
     57 C                    -0.108826
     58 N                    -0.475106
     59 C                    -0.080965
     60 C                     0.107790
     61 C                     0.000602
     62 C                     0.041282
     63 C                     0.080215
     64 C                     0.238251
     65 N                    -0.513363
     66 N                    -0.570068
     67 C                     0.209791
     68 C                     0.257118
     69 S                     0.593547
     70 N                    -0.566822
     71 C                    -0.201279
     72 S                     0.325398
     73 C                    -0.120604
     74 C                    -0.234579
     75 S                     0.275944
     76 C                     0.173541
     77 C                     0.059796
     78 C                    -0.302477
     79 C                    -0.074207
     80 N                    -0.434999
     81 S                     0.268112
     82 C                     0.112115
     83 C                    -0.304365
     84 C                    -0.240667
     85 H                     0.090075
     86 H                     0.106187
     87 H                     0.122962
     88 H                     0.108705
     89 H                     0.131807
     90 H                     0.123299
     91 H                     0.126352
     92 H                     0.148533
     93 H                     0.107193
     94 C                    -0.191387
     95 H                     0.128954
     96 H                     0.096192
     97 H                     0.094149
     98 C                    -0.171042
     99 H                     0.103228
    100 C                    -0.185136
    101 H                     0.100244
    102 H                     0.086463
    103 H                     0.084685
    104 C                    -0.178627
    105 H                     0.093068
    106 C                    -0.306182
    107 H                     0.098975
    108 H                     0.099888
    109 H                     0.105301
    110 H                     0.103689
  ----------------------------------------
  Sum of atomic charges =     0.000000

                    Cartesian Multipole Moments
 -----------------------------------------------------------------
    Charge (ESU x 10^10)
                 0.0000
    Dipole Moment (Debye)
         X       2.5586      Y      -0.3084      Z      -1.1290
       Tot       2.8135
    Quadrupole Moments (Debye-Ang)
        XX    -383.5542     XY      29.1058     YY    -439.9493
        XZ      16.7692     YZ      14.5813     ZZ    -440.4086

 Total job time:  80.53s(wall), 902.36s(cpu)
        *  Thank you very much for using Q-Chem.  Have a nice day.  *
