 Q-Chem 4.4, Q-Chem, Inc., Pleasanton, CA (2016)
 Q-Chem 4.4.2 for Intel X86 Linux

User input:
--------------------------------------------------------------
$comment
SP
$end

$rem
MEM_STATIC 5000
MEM_TOTAL 20000
JOBTYPE SP
EXCHANGE B3LYP
BASIS 6-31g(d,p)
$end

$molecule
0 1
C         -14.219000    -15.421000    -15.172000
C         -13.537000    -16.020000    -14.059000
N         -15.286000    -14.671000    -14.939000
C         -14.069000    -15.842000    -12.754000
C         -15.702000    -14.448000    -13.676000
C         -15.168000    -15.027000    -12.506000
C         -15.649000    -14.789000    -11.103000
C         -15.745000    -15.866000    -10.290000
C         -16.091000    -13.529000    -10.601000
N         -16.082000    -15.765000     -9.000000
N         -15.952000    -12.355000    -11.268000
C         -16.589000    -13.460000     -9.293000
C         -16.552000    -14.625000     -8.484000
S         -16.512000    -11.256000    -10.228000
N         -16.851000    -12.207000     -8.935000
C         -16.948000    -14.700000     -7.086000
S         -16.178000    -15.723000     -5.880000
C         -17.979000    -14.013000     -6.501000
C         -17.345000    -15.307000     -4.694000
S         -19.156000    -13.141000     -7.270000
C         -18.228000    -14.287000     -5.182000
C         -17.279000    -15.702000     -3.344000
C         -19.796000    -12.722000     -5.676000
C         -19.245000    -13.446000     -4.691000
N         -16.114000    -16.113000     -2.936000
S         -18.439000    -15.384000     -2.067000
C         -16.139000    -16.258000     -1.567000
C         -17.212000    -15.802000     -0.922000
C         -13.735000    -15.452000    -16.535000
H         -12.550000    -16.466000    -14.141000
H         -13.646000    -16.350000    -11.893000
H         -16.555000    -13.774000    -13.602000
H         -15.431000    -16.799000    -10.754000
H         -20.604000    -12.019000     -5.517000
H         -19.641000    -13.528000     -3.685000
H         -15.291000    -16.715000     -1.073000
H         -17.446000    -15.954000      0.124000
H         -14.334000    -16.148000    -17.135000
C         -12.167000    -15.625000    -16.680000
H         -13.962000    -14.460000    -16.946000
H         -11.839000    -16.643000    -16.433000
H         -11.668000    -14.964000    -15.961000
C         -11.671000    -15.193000    -18.101000
H         -12.243000    -15.722000    -18.873000
C         -10.160000    -15.264000    -18.430000
H         -11.944000    -14.145000    -18.277000
H          -9.935000    -16.295000    -18.729000
H          -9.577000    -15.109000    -17.513000
C          -9.647000    -14.299000    -19.527000
H         -10.403000    -14.232000    -20.319000
C          -8.263000    -14.692000    -20.142000
H          -9.580000    -13.260000    -19.181000
H          -8.263000    -15.777000    -20.301000
H          -7.432000    -14.294000    -19.547000
H          -8.205000    -14.213000    -21.127000
C          -7.283000    -18.629000     -5.995000
C          -7.111000    -17.500000     -5.159000
N          -8.338000    -19.469000     -5.808000
C          -8.071000    -17.269000     -4.190000
C          -9.215000    -19.260000     -4.802000
C          -9.108000    -18.159000     -3.967000
C         -10.054000    -18.028000     -2.871000
C          -9.566000    -17.613000     -1.625000
C         -11.453000    -18.297000     -2.924000
N         -10.309000    -17.595000     -0.499000
N         -12.180000    -18.660000     -4.066000
C         -12.216000    -18.231000     -1.704000
C         -11.612000    -17.894000     -0.476000
S         -13.693000    -19.032000     -3.518000
N         -13.515000    -18.619000     -1.889000
C         -12.386000    -17.683000      0.802000
S         -13.971000    -18.308000      1.082000
C         -11.873000    -16.991000      1.927000
C         -13.967000    -17.700000      2.734000
S         -10.364000    -16.295000      2.260000
C         -12.774000    -16.965000      2.943000
C         -15.018000    -17.953000      3.692000
C         -10.892000    -16.062000      3.951000
C         -12.175000    -16.447000      4.156000
N         -16.186000    -17.697000      3.077000
S         -14.938000    -17.987000      5.407000
C         -17.177000    -18.034000      3.954000
C         -16.683000    -18.289000      5.223000
C          -6.542000    -18.764000     -7.351000
H          -6.254000    -16.840000     -5.257000
H          -8.135000    -16.360000     -3.600000
H         -10.085000    -19.907000     -4.702000
H          -8.509000    -17.353000     -1.600000
H         -10.168000    -15.796000      4.710000
H         -12.675000    -16.410000      5.117000
H         -18.229000    -18.150000      3.728000
H         -17.147000    -18.499000      6.178000
H          -7.280000    -18.925000     -8.147000
C          -5.381000    -19.762000     -7.407000
H          -6.071000    -17.797000     -7.569000
H          -4.718000    -19.597000     -6.549000
H          -4.860000    -19.543000     -8.347000
C          -5.717000    -21.243000     -7.211000
H          -4.762000    -21.783000     -7.201000
C          -6.707000    -21.721000     -8.366000
H          -6.169000    -21.174000     -6.215000
H          -6.190000    -21.663000     -9.332000
H          -7.595000    -21.091000     -8.496000
C          -7.310000    -23.176000     -8.235000
H          -8.050000    -23.278000     -9.039000
C          -7.963000    -23.459000     -6.884000
H          -6.425000    -23.796000     -8.422000
H          -8.543000    -22.599000     -6.526000
H          -7.265000    -23.613000     -6.052000
H          -8.575000    -24.358000     -7.027000
$end

--------------------------------------------------------------

             Standard Nuclear Orientation (Angstroms)
    I     Atom           X                Y                Z
 ----------------------------------------------------------------
    1      C       9.5901967144    -1.0794020217     0.9010678621
    2      C       8.4426310022    -0.2162179329     0.9275284939
    3      N       9.4082450068    -2.3787064469     0.7167323339
    4      C       7.1491750886    -0.7937425564     0.8218397581
    5      C       8.1694008192    -2.8746838743     0.5237933017
    6      C       6.9600216359    -2.1523307292     0.5938284685
    7      C       5.5813708292    -2.7152987725     0.3968438610
    8      C       4.6165380572    -2.3043812490     1.2514540123
    9      C       5.2432545373    -3.7115840139    -0.5665154131
   10      N       3.3378078136    -2.6734703716     1.1230321148
   11      N       6.0803944340    -4.1334521827    -1.5482027572
   12      C       3.9329480268    -4.2075352337    -0.5940514958
   13      C       2.9668545370    -3.6377410330     0.2748978340
   14      S       5.1807792800    -5.1674677381    -2.3993815903
   15      N       3.7462876209    -5.0393350147    -1.6138965905
   16      C       1.5525463948    -3.9773253495     0.3103939031
   17      S       0.2565814708    -2.8373290392     0.6491391295
   18      C       1.0157998247    -5.2217665516     0.1093361650
   19      C      -0.9208822197    -4.0843620817     0.6545102021
   20      S       1.8350548477    -6.6566667982     0.0259305922
   21      C      -0.3410001596    -5.3360683183     0.2605542481
   22      C      -2.3079590478    -3.8646181958     0.7575223243
   23      C       0.2849702304    -7.4490739933    -0.2828177133
   24      C      -0.7617487124    -6.6394502048    -0.0662749325
   25      N      -2.7044003281    -2.6520868765     0.5021557036
   26      S      -3.5891360133    -5.0607357377     0.8306072685
   27      C      -4.0791334138    -2.6313887321     0.4280508453
   28      C      -4.7110607747    -3.8043581433     0.4380793458
   29      C      10.9595503747    -0.6127507054     0.9107168051
   30      H       8.5150025485     0.8655910445     0.8622544900
   31      H       6.2490141433    -0.1968757414     0.9303491013
   32      H       8.1456398819    -3.9465613672     0.3291781479
   33      H       4.9573026644    -1.5765947613     1.9853390925
   34      H       0.1840151855    -8.4967224051    -0.5369729494
   35      H      -1.7898641254    -6.9682453523     0.0359427204
   36      H      -4.5852194010    -1.6776723329     0.3487349996
   37      H      -5.7796381587    -3.9581301842     0.5185314053
   38      H      11.4171516495    -0.7983472732     1.8901921685
   39      C      11.1668007242     0.8521038071     0.3443012779
   40      H      11.4965994053    -1.2752839335     0.2199621017
   41      H      10.7937148412     1.6189872616     1.0353972850
   42      H      10.5808897502     0.9640243137    -0.5760601353
   43      C      12.6613261448     1.1107873962    -0.0447457219
   44      H      13.3145978202     0.8730109400     0.8036100260
   45      C      13.0618914044     2.4805948824    -0.6443938882
   46      H      12.9717603793     0.3767265687    -0.7987976350
   47      H      13.2203901948     3.1733956271     0.1910055741
   48      H      12.2117359741     2.9027051242    -1.1956303965
   49      C      14.3147014961     2.4952272617    -1.5543695844
   50      H      15.0637712271     1.8131644260    -1.1336870126
   51      C      14.9438176700     3.9114564748    -1.7703271164
   52      H      14.1275367200     2.0547306330    -2.5416173075
   53      H      14.9434003307     4.4291793295    -0.8036478151
   54      H      14.4610921864     4.4426985877    -2.5996328049
   55      H      15.9895959801     3.7540458748    -2.0611872703
   56      C       0.4540343585     6.3720394265    -1.0024149325
   57      C      -0.1981103070     5.9719260458    -2.1931028084
   58      N       0.0874342925     5.8384241580     0.1952716446
   59      C      -1.1763100148     4.9989706873    -2.0910969164
   60      C      -0.9257881420     4.9482498628     0.2715344957
   61      C      -1.5847037334     4.5042302553    -0.8640498612
   62      C      -2.7020690643     3.5886140809    -0.7014622286
   63      C      -3.8448677093     3.7975081250    -1.4845711197
   64      C      -2.7682835466     2.4859443369     0.1997070552
   65      N      -4.9967275367     3.1135884257    -1.3241909994
   66      N      -1.7342523161     2.0400532130     1.0342263900
   67      C      -4.0071647290     1.7598614879     0.3132945204
   68      C      -5.1369101854     2.1081932127    -0.4539793637
   69      S      -2.4155502915     0.8744597529     1.9855843428
   70      N      -3.9545795454     0.8041687600     1.2910757885
   71      C      -6.4126628310     1.3025400933    -0.4700802452
   72      S      -6.8700489922     0.1987002635     0.7763488661
   73      C      -7.3943163057     1.4043414275    -1.4867665016
   74      C      -8.4133862138    -0.1176720490    -0.0090190605
   75      S      -7.5364530099     2.3959326978    -2.8538546150
   76      C      -8.4453408872     0.5796638253    -1.2418436941
   77      C      -9.4561396086    -0.9409125997     0.5578269092
   78      C      -9.2029810246     1.7884838421    -3.0688994100
   79      C      -9.5342840607     0.8380194313    -2.1615986319
   80      N      -8.8778952404    -2.0786127694     0.9812141724
   81      S     -11.1505647742    -0.8870494625     0.2843253177
   82      C      -9.8494195660    -2.8076557301     1.6052460996
   83      C     -11.1118379874    -2.2760900087     1.3974971809
   84      C       1.8159882108     7.1140824682    -1.0246821362
   85      H       0.0431977635     6.4149691549    -3.1549428256
   86      H      -1.6308068524     4.5001981013    -2.9414706766
   87      H      -1.1679239546     4.4875602756     1.2279049012
   88      H      -3.7717423466     4.6039802107    -2.2123962747
   89      H      -9.8729424066     2.2850457789    -3.7585304632
   90      H     -10.5065899387     0.3620990804    -2.1067251479
   91      H      -9.7028177122    -3.6742072327     2.2367778801
   92      H     -12.1120197206    -2.6030419247     1.6507953158
   93      H       2.5369409479     6.5560947661    -0.4138974973
   94      C       1.7924526373     8.6103899633    -0.6967020197
   95      H       2.1984449083     7.0740540176    -2.0525822274
   96      H       1.0065749585     9.0992900492    -1.2852009406
   97      H       2.7823640548     8.9829534910    -0.9870015261
   98      C       1.3648004289     9.0134807021     0.7172656055
   99      H       1.3308345561    10.1099640245     0.7344598796
  100      C       2.3800320073     8.3909189039     1.7776101955
  101      H       0.3652952507     8.5639592948     0.7163153145
  102      H       3.3720311592     8.8368311983     1.6330110657
  103      H       2.5494020538     7.3129963352     1.6692555781
  104      C       2.0051815424     8.5479227850     3.3049058153
  105      H       2.7424859079     7.9603393237     3.8666423626
  106      C       0.5925014743     8.0817128748     3.6494088559
  107      H       2.1502177312     9.6245009107     3.4550325725
  108      H       0.3307257341     7.1564636171     3.1206827710
  109      H      -0.2120032409     8.7532371034     3.3254159954
  110      H       0.5684867011     7.9722652887     4.7405726917
 ----------------------------------------------------------------

    9   -5663.4901179762      9.28E-06 Convergence criterion met
 Total energy in the final basis set = -5663.4901179762

                    Orbital Energies (a.u.)
 --------------------------------------------------------------

 Alpha MOs
 -- Occupied --
-88.986 -88.984 -88.939 -88.929 -88.920 -88.917 -88.911 -88.902
-14.385 -14.384 -14.382 -14.380 -14.349 -14.347 -14.342 -14.331
-14.328 -14.321 -10.272 -10.264 -10.260 -10.259 -10.256 -10.255
-10.254 -10.252 -10.241 -10.240 -10.238 -10.237 -10.234 -10.233
-10.232 -10.228 -10.227 -10.226 -10.226 -10.225 -10.221 -10.221
-10.221 -10.219 -10.216 -10.213 -10.213 -10.210 -10.208 -10.207
-10.207 -10.206 -10.205 -10.204 -10.203 -10.202 -10.198 -10.195
-10.190 -10.186 -10.184 -10.181 -10.180 -10.178 -10.176 -10.175
-10.172 -10.168 -10.167 -10.158  -8.042  -8.039  -8.001  -7.987
 -7.979  -7.979  -7.971  -7.966  -6.007  -6.004  -6.001  -5.999
 -5.998  -5.996  -5.964  -5.962  -5.957  -5.952  -5.948  -5.944
 -5.944  -5.943  -5.940  -5.939  -5.936  -5.936  -5.936  -5.932
 -5.930  -5.927  -5.926  -5.921  -1.041  -1.010  -0.977  -0.971
 -0.960  -0.954  -0.938  -0.934  -0.923  -0.917  -0.905  -0.887
 -0.855  -0.851  -0.836  -0.834  -0.816  -0.808  -0.803  -0.802
 -0.799  -0.798  -0.795  -0.795  -0.780  -0.776  -0.768  -0.762
 -0.749  -0.748  -0.743  -0.742  -0.732  -0.725  -0.712  -0.704
 -0.695  -0.689  -0.672  -0.668  -0.657  -0.651  -0.648  -0.645
 -0.633  -0.632  -0.625  -0.624  -0.614  -0.605  -0.599  -0.596
 -0.593  -0.590  -0.582  -0.577  -0.572  -0.572  -0.571  -0.549
 -0.548  -0.543  -0.541  -0.533  -0.526  -0.523  -0.520  -0.517
 -0.505  -0.505  -0.500  -0.499  -0.486  -0.483  -0.474  -0.473
 -0.470  -0.470  -0.469  -0.462  -0.459  -0.455  -0.452  -0.451
 -0.447  -0.445  -0.438  -0.438  -0.434  -0.434  -0.433  -0.432
 -0.426  -0.426  -0.420  -0.419  -0.417  -0.416  -0.415  -0.413
 -0.410  -0.409  -0.406  -0.403  -0.399  -0.397  -0.396  -0.395
 -0.392  -0.391  -0.390  -0.389  -0.387  -0.386  -0.382  -0.380
 -0.379  -0.371  -0.370  -0.367  -0.366  -0.365  -0.359  -0.356
 -0.354  -0.353  -0.350  -0.347  -0.344  -0.341  -0.339  -0.338
 -0.338  -0.335  -0.335  -0.333  -0.330  -0.326  -0.318  -0.316
 -0.314  -0.309  -0.308  -0.308  -0.305  -0.301  -0.300  -0.296
 -0.295  -0.290  -0.285  -0.284  -0.283  -0.283  -0.281  -0.278
 -0.271  -0.267  -0.264  -0.260  -0.254  -0.249  -0.248  -0.246
 -0.246  -0.239  -0.234  -0.232  -0.194  -0.189

          Ground-State Mulliken Net Atomic Charges

     Atom                 Charge (a.u.)
  ----------------------------------------
      1 C                     0.281111
      2 C                    -0.121817
      3 N                    -0.486635
      4 C                    -0.105635
      5 C                     0.073541
      6 C                     0.056666
      7 C                     0.049282
      8 C                     0.065009
      9 C                     0.198344
     10 N                    -0.517741
     11 N                    -0.535850
     12 C                     0.228456
     13 C                     0.260780
     14 S                     0.602085
     15 N                    -0.548149
     16 C                    -0.195662
     17 S                     0.358732
     18 C                    -0.105603
     19 C                    -0.222040
     20 S                     0.267010
     21 C                     0.119227
     22 C                     0.068718
     23 C                    -0.301355
     24 C                    -0.063423
     25 N                    -0.438432
     26 S                     0.246023
     27 C                     0.114811
     28 C                    -0.305597
     29 C                    -0.231382
     30 H                     0.093313
     31 H                     0.095760
     32 H                     0.101683
     33 H                     0.112401
     34 H                     0.122537
     35 H                     0.112975
     36 H                     0.131354
     37 H                     0.148115
     38 H                     0.122859
     39 C                    -0.197842
     40 H                     0.130242
     41 H                     0.098556
     42 H                     0.104966
     43 C                    -0.188812
     44 H                     0.093525
     45 C                    -0.171603
     46 H                     0.095288
     47 H                     0.089832
     48 H                     0.089514
     49 C                    -0.188765
     50 H                     0.093927
     51 C                    -0.320818
     52 H                     0.094630
     53 H                     0.105887
     54 H                     0.109063
     55 H                     0.103178
     56 C                     0.262500
     57 C                    -0.136007
     58 N                    -0.489214
     59 C                    -0.074996
     60 C                     0.089422
     61 C                     0.054725
     62 C                     0.012837
     63 C                     0.069699
     64 C                     0.221428
     65 N                    -0.549133
     66 N                    -0.551207
     67 C                     0.206887
     68 C                     0.337401
     69 S                     0.631312
     70 N                    -0.590807
     71 C                    -0.229508
     72 S                     0.364937
     73 C                    -0.099536
     74 C                    -0.195520
     75 S                     0.282189
     76 C                     0.119806
     77 C                     0.017410
     78 C                    -0.312781
     79 C                    -0.064634
     80 N                    -0.422387
     81 S                     0.286530
     82 C                     0.132700
     83 C                    -0.305702
     84 C                    -0.208932
     85 H                     0.096502
     86 H                     0.101567
     87 H                     0.121218
     88 H                     0.112885
     89 H                     0.129208
     90 H                     0.106078
     91 H                     0.122980
     92 H                     0.127043
     93 H                     0.123673
     94 C                    -0.184364
     95 H                     0.093792
     96 H                     0.084241
     97 H                     0.087199
     98 C                    -0.166164
     99 H                     0.088330
    100 C                    -0.183509
    101 H                     0.110434
    102 H                     0.077771
    103 H                     0.104666
    104 C                    -0.177403
    105 H                     0.087312
    106 C                    -0.317474
    107 H                     0.087823
    108 H                     0.121487
    109 H                     0.100011
    110 H                     0.093035
  ----------------------------------------
  Sum of atomic charges =     0.000000

                    Cartesian Multipole Moments
 -----------------------------------------------------------------
    Charge (ESU x 10^10)
                 0.0000
    Dipole Moment (Debye)
         X      -4.5180      Y      -0.9240      Z      -2.0264
       Tot       5.0371
    Quadrupole Moments (Debye-Ang)
        XX    -373.3493     XY      28.6046     YY    -427.8377
        XZ      -4.4614     YZ     -14.4306     ZZ    -439.9350

 Total job time:  83.95s(wall), 919.38s(cpu)
        *  Thank you very much for using Q-Chem.  Have a nice day.  *
