 Q-Chem 4.4, Q-Chem, Inc., Pleasanton, CA (2016)
 Q-Chem 4.4.2 for Intel X86 Linux

User input:
--------------------------------------------------------------
$comment
SP
$end

$rem
MEM_STATIC 5000
MEM_TOTAL 20000
JOBTYPE SP
EXCHANGE B3LYP
BASIS 6-31g(d,p)
$end

$molecule
0 1
C         -18.771000     -8.410000     15.645000
C         -19.152000     -9.430000     16.486000
N         -18.653000     -8.684000     14.322000
C         -19.561000    -10.652000     16.013000
C         -19.028000     -9.909000     13.886000
C         -19.589000    -10.937000     14.637000
C         -19.706000    -12.259000     13.967000
C         -19.329000    -12.460000     12.619000
C         -20.098000    -13.429000     14.613000
N         -19.383000    -13.599000     11.897000
N         -20.466000    -13.560000     15.939000
C         -20.098000    -14.655000     13.953000
C         -19.817000    -14.711000     12.539000
S         -20.967000    -15.096000     16.124000
N         -20.641000    -15.643000     14.645000
C         -20.025000    -15.925000     11.742000
S         -21.184000    -17.151000     12.102000
C         -19.362000    -16.222000     10.563000
C         -20.893000    -18.021000     10.672000
S         -17.959000    -15.587000      9.834000
C         -19.924000    -17.346000      9.921000
C         -21.543000    -19.261000     10.359000
C         -17.988000    -16.933000      8.702000
C         -19.093000    -17.772000      8.818000
N         -21.531000    -19.724000      9.146000
S         -22.476000    -20.166000     11.570000
C         -22.327000    -20.836000      9.063000
C         -22.942000    -21.172000     10.246000
C         -18.331000     -7.092000     16.101000
H         -19.106000     -9.275000     17.560000
H         -19.890000    -11.385000     16.743000
H         -18.931000    -10.036000     12.809000
H         -18.964000    -11.652000     11.987000
H         -17.172000    -16.945000      7.992000
H         -19.275000    -18.670000      8.238000
H         -22.310000    -21.326000      8.099000
H         -23.312000    -22.145000     10.543000
H         -17.489000     -7.207000     16.794000
C         -19.526000     -6.338000     16.787000
H         -18.034000     -6.593000     15.171000
H         -19.151000     -5.309000     16.841000
H         -19.633000     -6.712000     17.813000
C         -20.823000     -6.354000     15.959000
H         -20.522000     -6.168000     14.921000
C         -21.854000     -5.290000     16.407000
H         -21.262000     -7.355000     16.047000
H         -21.372000     -4.311000     16.297000
H         -22.049000     -5.357000     17.484000
C         -23.273000     -5.376000     15.720000
H         -23.151000     -5.450000     14.633000
C         -24.119000     -4.173000     16.245000
H         -23.739000     -6.319000     16.031000
H         -23.624000     -3.215000     16.045000
H         -24.251000     -4.188000     17.334000
H         -25.071000     -4.147000     15.700000
C          -7.283000    -18.629000     -5.995000
C          -7.111000    -17.500000     -5.159000
N          -8.338000    -19.469000     -5.808000
C          -8.071000    -17.269000     -4.190000
C          -9.215000    -19.260000     -4.802000
C          -9.108000    -18.159000     -3.967000
C         -10.054000    -18.028000     -2.871000
C          -9.566000    -17.613000     -1.625000
C         -11.453000    -18.297000     -2.924000
N         -10.309000    -17.595000     -0.499000
N         -12.180000    -18.660000     -4.066000
C         -12.216000    -18.231000     -1.704000
C         -11.612000    -17.894000     -0.476000
S         -13.693000    -19.032000     -3.518000
N         -13.515000    -18.619000     -1.889000
C         -12.386000    -17.683000      0.802000
S         -13.971000    -18.308000      1.082000
C         -11.873000    -16.991000      1.927000
C         -13.967000    -17.700000      2.734000
S         -10.364000    -16.295000      2.260000
C         -12.774000    -16.965000      2.943000
C         -15.018000    -17.953000      3.692000
C         -10.892000    -16.062000      3.951000
C         -12.175000    -16.447000      4.156000
N         -16.186000    -17.697000      3.077000
S         -14.938000    -17.987000      5.407000
C         -17.177000    -18.034000      3.954000
C         -16.683000    -18.289000      5.223000
C          -6.542000    -18.764000     -7.351000
H          -6.254000    -16.840000     -5.257000
H          -8.135000    -16.360000     -3.600000
H         -10.085000    -19.907000     -4.702000
H          -8.509000    -17.353000     -1.600000
H         -10.168000    -15.796000      4.710000
H         -12.675000    -16.410000      5.117000
H         -18.229000    -18.150000      3.728000
H         -17.147000    -18.499000      6.178000
H          -7.280000    -18.925000     -8.147000
C          -5.381000    -19.762000     -7.407000
H          -6.071000    -17.797000     -7.569000
H          -4.718000    -19.597000     -6.549000
H          -4.860000    -19.543000     -8.347000
C          -5.717000    -21.243000     -7.211000
H          -4.762000    -21.783000     -7.201000
C          -6.707000    -21.721000     -8.366000
H          -6.169000    -21.174000     -6.215000
H          -6.190000    -21.663000     -9.332000
H          -7.595000    -21.091000     -8.496000
C          -7.310000    -23.176000     -8.235000
H          -8.050000    -23.278000     -9.039000
C          -7.963000    -23.459000     -6.884000
H          -6.425000    -23.796000     -8.422000
H          -8.543000    -22.599000     -6.526000
H          -7.265000    -23.613000     -6.052000
H          -8.575000    -24.358000     -7.027000
$end

--------------------------------------------------------------

             Standard Nuclear Orientation (Angstroms)
    I     Atom           X                Y                Z
 ----------------------------------------------------------------
    1      C      11.8633852097    -4.6156404732     0.8947992017
    2      C      12.3922817619    -3.4832075344     1.4698696985
    3      N      10.6505040670    -4.5202675067     0.2955060088
    4      C      11.8114236160    -2.2485808527     1.3195541263
    5      C      10.0816160126    -3.2966790922     0.1928231309
    6      C      10.6244525576    -2.0777389428     0.5865481588
    7      C       9.7078371202    -0.9073872634     0.5674147702
    8      C       8.3708634803    -1.0008181076     0.1164090456
    9      C      10.0358922727     0.3487599974     1.0717498534
   10      N       7.4415542788    -0.0244459964     0.0485643085
   11      N      11.2413590499     0.7276982136     1.6322109826
   12      C       9.1011089468     1.3799631262     1.1101717314
   13      C       7.8062578060     1.2005080712     0.4997215643
   14      S      11.1318799185     2.3257468834     1.9128829779
   15      N       9.6007607652     2.5512915158     1.4682148348
   16      C       6.8680336860     2.3108191193     0.3016966236
   17      S       7.3267058376     3.9613597162     0.0984908274
   18      C       5.4940176701     2.1770577442     0.1921207024
   19      C       5.7459106565     4.4901980585    -0.2299868781
   20      S       4.4232143750     0.9042442704     0.5614459845
   21      C       4.8851170600     3.3870568479    -0.2035132397
   22      C       5.4069660004     5.8658979176    -0.4550100275
   23      C       3.0835344812     2.0227767885     0.3420746370
   24      C       3.4467029411     3.2917396672    -0.1009195866
   25      N       4.2727162331     6.1848471996    -1.0005655434
   26      S       6.5442533477     7.1846311107    -0.1035057527
   27      C       4.2331293920     7.5330946491    -1.2407960515
   28      C       5.3781275749     8.1996446223    -0.8729641682
   29      C      12.4468660365    -5.9503621989     1.0241361251
   30      H      13.2845873398    -3.5688548100     2.0831170383
   31      H      12.3198581977    -1.4001051350     1.7667825159
   32      H       9.1254334273    -3.3037534916    -0.3278800631
   33      H       7.9481752791    -1.9256114149    -0.2729558519
   34      H       2.1050574353     1.5978035149     0.5211846237
   35      H       2.7742835803     4.1270554428    -0.2622507930
   36      H       3.2878242450     7.8900926056    -1.6263289789
   37      H       5.4794434844     9.2490496980    -0.6273586438
   38      H      12.5502627859    -6.2030201698     2.0861676980
   39      C      13.8377937148    -5.9978515045     0.2959864430
   40      H      11.7162789490    -6.5917871089     0.5172568571
   41      H      14.0348170862    -7.0751672880     0.2416311888
   42      H      14.5928639351    -5.5499265665     0.9541909798
   43      C      13.8075565622    -5.4231195257    -1.1311848387
   44      H      12.8850093849    -5.7991105521    -1.5896370758
   45      C      15.0280692489    -5.8365048212    -1.9886359330
   46      H      13.7656253226    -4.3304091974    -1.0493807469
   47      H      15.0238002168    -6.9318276302    -2.0444456056
   48      H      15.9687913920    -5.6126634861    -1.4715480235
   49      C      15.1485089693    -5.1329078215    -3.3969581744
   50      H      14.1893820518    -5.1990316018    -3.9238663275
   51      C      16.3853032269    -5.7509763702    -4.1228240253
   52      H      15.3184232624    -4.0632600490    -3.2234393686
   53      H      16.2952896015    -6.8401034610    -4.2149583149
   54      H      17.3216658096    -5.6018864321    -3.5709478580
   55      H      16.4260242433    -5.3580167402    -5.1465083164
   56      C     -14.5898568608    -2.5644213695     0.0520719940
   57      C     -13.6304624185    -3.5804327547     0.2765807226
   58      N     -14.1946169678    -1.3135693181    -0.3122747814
   59      C     -12.3003117407    -3.2617471226     0.0690701394
   60      C     -12.8829760909    -1.0125387843    -0.4298538086
   61      C     -11.9014788889    -1.9731640942    -0.2434744737
   62      C     -10.5090222436    -1.5648647127    -0.3309336416
   63      C      -9.6111929837    -2.0770926020     0.6147989896
   64      C      -9.9487224738    -0.6676091213    -1.2866363001
   65      N      -8.3321700828    -1.6641104090     0.7322516489
   66      N     -10.6276186631    -0.0804336834    -2.3631059789
   67      C      -8.5683832249    -0.2809143294    -1.1450181657
   68      C      -7.7680675210    -0.7810477489    -0.0982467786
   69      S      -9.5614161908     1.0017570910    -3.0111279042
   70      N      -8.2029014567     0.6643453679    -2.0642989616
   71      C      -6.2878696514    -0.5124351572     0.0189818117
   72      S      -5.4850088263     0.8079127392    -0.7513076975
   73      C      -5.4084944600    -1.2876886897     0.8148079442
   74      C      -3.9577485809     0.3836611426     0.0143754783
   75      S      -5.6572678180    -2.5930028692     1.8667835662
   76      C      -4.1372252429    -0.8140351721     0.7495398582
   77      C      -2.7508928531     1.1694643861    -0.0969192414
   78      C      -3.9591832626    -2.4328318811     2.3991444375
   79      C      -3.2868838834    -1.4715918594     1.7206386046
   80      N      -2.5839508118     1.4585862714    -1.3994260131
   81      S      -1.4219927910     1.2765570298     0.9853638966
   82      C      -1.4995843173     2.2841249454    -1.4855317812
   83      C      -0.8069147585     2.3583818786    -0.2879856276
   84      C     -16.0914558730    -2.8892697100    -0.1617409204
   85      H     -13.9155231656    -4.5732960673     0.6121635186
   86      H     -11.4946234222    -3.9891382505     0.0534023193
   87      H     -12.5855981913    -0.0247681273    -0.7782566128
   88      H     -10.0279270793    -2.8058113394     1.3081788966
   89      H      -3.6188629192    -2.9592288253     3.2812449539
   90      H      -2.2544559883    -1.2018466692     1.9109545889
   91      H      -1.1995845012     2.8706254707    -2.3441663043
   92      H       0.1215299318     2.8273087861     0.0112116525
   93      H     -16.4200340208    -2.4508232426    -1.1125206510
   94      C     -17.0391416766    -2.5692139008     0.9986542263
   95      H     -16.1811216425    -3.9760972962    -0.2851096666
   96      H     -16.6222960948    -2.9713608682     1.9300379160
   97      H     -17.9807307703    -3.0721154207     0.7466581154
   98      C     -17.2032165642    -1.0970876096     1.3867220222
   99      H     -17.8451156158    -1.0765039004     2.2762538757
  100      C     -17.8004470857    -0.2849153081     0.1512865294
  101      H     -16.1558189617    -0.8758735779     1.6214636130
  102      H     -18.8140078247    -0.6464186070    -0.0627671862
  103      H     -17.2585561312    -0.4243616077    -0.7917155506
  104      C     -17.8762657917     1.2869141825     0.2975690519
  105      H     -18.1908565191     1.6740127046    -0.6799826901
  106      C     -16.5598767829     1.9363183719     0.7183934528
  107      H     -18.6683928610     1.3977045210     1.0478051527
  108      H     -15.7018975523     1.4815305413     0.2073125698
  109      H     -16.2863258651     1.7956494427     1.7712591364
  110      H     -16.6685230011     3.0062285992     0.5023330333
 ----------------------------------------------------------------

   10   -5663.5087957869      3.68E-06 Convergence criterion met
 Total energy in the final basis set = -5663.5087957869

                    Orbital Energies (a.u.)
 --------------------------------------------------------------

 Alpha MOs
 -- Occupied --
-88.994 -88.986 -88.938 -88.929 -88.928 -88.926 -88.914 -88.910
-14.387 -14.387 -14.386 -14.382 -14.354 -14.347 -14.345 -14.345
-14.329 -14.325 -10.272 -10.270 -10.266 -10.265 -10.262 -10.256
-10.256 -10.255 -10.241 -10.240 -10.240 -10.239 -10.239 -10.238
-10.235 -10.234 -10.234 -10.233 -10.231 -10.230 -10.230 -10.229
-10.224 -10.224 -10.222 -10.221 -10.220 -10.220 -10.213 -10.213
-10.208 -10.206 -10.205 -10.205 -10.204 -10.203 -10.203 -10.189
-10.186 -10.185 -10.183 -10.183 -10.178 -10.177 -10.176 -10.175
-10.172 -10.167 -10.167 -10.158  -8.049  -8.041  -7.999  -7.990
 -7.989  -7.984  -7.975  -7.970  -6.015  -6.009  -6.007  -6.006
 -6.001  -5.999  -5.963  -5.960  -5.956  -5.954  -5.953  -5.951
 -5.949  -5.948  -5.947  -5.946  -5.945  -5.941  -5.940  -5.936
 -5.935  -5.932  -5.931  -5.926  -1.046  -1.012  -0.981  -0.975
 -0.960  -0.955  -0.938  -0.934  -0.923  -0.916  -0.904  -0.888
 -0.858  -0.849  -0.840  -0.837  -0.814  -0.814  -0.813  -0.806
 -0.799  -0.799  -0.798  -0.794  -0.784  -0.776  -0.770  -0.762
 -0.751  -0.748  -0.743  -0.742  -0.731  -0.730  -0.715  -0.703
 -0.698  -0.688  -0.678  -0.669  -0.654  -0.652  -0.651  -0.646
 -0.634  -0.632  -0.624  -0.623  -0.614  -0.613  -0.602  -0.598
 -0.596  -0.591  -0.588  -0.581  -0.577  -0.571  -0.570  -0.556
 -0.546  -0.543  -0.542  -0.541  -0.529  -0.525  -0.519  -0.518
 -0.509  -0.506  -0.505  -0.500  -0.489  -0.486  -0.480  -0.477
 -0.473  -0.471  -0.467  -0.461  -0.460  -0.456  -0.452  -0.450
 -0.444  -0.443  -0.443  -0.439  -0.438  -0.435  -0.433  -0.431
 -0.430  -0.426  -0.425  -0.420  -0.419  -0.415  -0.413  -0.412
 -0.411  -0.410  -0.406  -0.403  -0.403  -0.400  -0.398  -0.396
 -0.395  -0.395  -0.391  -0.390  -0.389  -0.389  -0.387  -0.386
 -0.381  -0.379  -0.375  -0.371  -0.369  -0.366  -0.360  -0.355
 -0.354  -0.353  -0.353  -0.350  -0.347  -0.346  -0.343  -0.341
 -0.339  -0.338  -0.335  -0.332  -0.330  -0.326  -0.321  -0.318
 -0.311  -0.309  -0.308  -0.306  -0.304  -0.304  -0.301  -0.301
 -0.296  -0.295  -0.291  -0.289  -0.285  -0.284  -0.284  -0.282
 -0.281  -0.272  -0.272  -0.264  -0.257  -0.252  -0.249  -0.248
 -0.247  -0.245  -0.234  -0.233  -0.196  -0.193

          Ground-State Mulliken Net Atomic Charges

     Atom                 Charge (a.u.)
  ----------------------------------------
      1 C                     0.293138
      2 C                    -0.104541
      3 N                    -0.506114
      4 C                    -0.083338
      5 C                     0.061404
      6 C                     0.060991
      7 C                     0.085896
      8 C                     0.044578
      9 C                     0.204038
     10 N                    -0.521602
     11 N                    -0.567445
     12 C                     0.208539
     13 C                     0.269183
     14 S                     0.611585
     15 N                    -0.544441
     16 C                    -0.225879
     17 S                     0.341082
     18 C                    -0.088734
     19 C                    -0.204967
     20 S                     0.286731
     21 C                     0.105257
     22 C                     0.070503
     23 C                    -0.313525
     24 C                    -0.052133
     25 N                    -0.428614
     26 S                     0.263938
     27 C                     0.120166
     28 C                    -0.311140
     29 C                    -0.251619
     30 H                     0.082211
     31 H                     0.122898
     32 H                     0.093520
     33 H                     0.113654
     34 H                     0.121126
     35 H                     0.121908
     36 H                     0.115691
     37 H                     0.134923
     38 H                     0.111418
     39 C                    -0.188758
     40 H                     0.122296
     41 H                     0.097254
     42 H                     0.093709
     43 C                    -0.179047
     44 H                     0.105646
     45 C                    -0.174218
     46 H                     0.098809
     47 H                     0.088962
     48 H                     0.087416
     49 C                    -0.180407
     50 H                     0.097700
     51 C                    -0.319108
     52 H                     0.097226
     53 H                     0.104636
     54 H                     0.105643
     55 H                     0.099550
     56 C                     0.261288
     57 C                    -0.135738
     58 N                    -0.488734
     59 C                    -0.074925
     60 C                     0.088410
     61 C                     0.054518
     62 C                     0.011641
     63 C                     0.070140
     64 C                     0.218795
     65 N                    -0.548306
     66 N                    -0.554973
     67 C                     0.206661
     68 C                     0.335033
     69 S                     0.606209
     70 N                    -0.577281
     71 C                    -0.226993
     72 S                     0.375010
     73 C                    -0.099288
     74 C                    -0.195164
     75 S                     0.280673
     76 C                     0.119148
     77 C                     0.015918
     78 C                    -0.312988
     79 C                    -0.064125
     80 N                    -0.412288
     81 S                     0.281373
     82 C                     0.136560
     83 C                    -0.314597
     84 C                    -0.208490
     85 H                     0.096770
     86 H                     0.100960
     87 H                     0.120607
     88 H                     0.113620
     89 H                     0.128966
     90 H                     0.106211
     91 H                     0.126535
     92 H                     0.129445
     93 H                     0.124063
     94 C                    -0.184215
     95 H                     0.093901
     96 H                     0.084142
     97 H                     0.087516
     98 C                    -0.165925
     99 H                     0.088359
    100 C                    -0.183688
    101 H                     0.110224
    102 H                     0.078142
    103 H                     0.104716
    104 C                    -0.177609
    105 H                     0.087445
    106 C                    -0.317093
    107 H                     0.087941
    108 H                     0.121065
    109 H                     0.100015
    110 H                     0.092803
  ----------------------------------------
  Sum of atomic charges =     0.000000

                    Cartesian Multipole Moments
 -----------------------------------------------------------------
    Charge (ESU x 10^10)
                 0.0000
    Dipole Moment (Debye)
         X       4.5955      Y       1.6464      Z       2.6661
       Tot       5.5621
    Quadrupole Moments (Debye-Ang)
        XX    -429.2416     XY      35.7689     YY    -408.6147
        XZ      11.9268     YZ      -9.1848     ZZ    -445.2945

 Total job time:  92.16s(wall), 980.62s(cpu)
        *  Thank you very much for using Q-Chem.  Have a nice day.  *
