 Q-Chem 4.4, Q-Chem, Inc., Pleasanton, CA (2016)
 Q-Chem 4.4.2 for Intel X86 Linux

User input:
--------------------------------------------------------------
$comment
SP
$end

$rem
MEM_STATIC 5000
MEM_TOTAL 20000
JOBTYPE SP
EXCHANGE B3LYP
BASIS 6-31g(d,p)
$end

$molecule
0 1
C         -14.369000     -5.939000    -10.265000
C         -15.056000     -6.809000    -11.066000
N         -13.385000     -6.259000     -9.402000
C         -14.750000     -8.126000    -10.882000
C         -12.992000     -7.573000     -9.296000
C         -13.723000     -8.556000    -10.002000
C         -13.223000     -9.955000    -10.010000
C         -12.504000    -10.461000    -11.095000
C         -13.366000    -10.860000     -8.975000
N         -12.051000    -11.721000    -11.221000
N         -13.926000    -10.492000     -7.798000
C         -13.018000    -12.160000     -9.071000
C         -12.328000    -12.576000    -10.222000
S         -14.010000    -11.845000     -6.904000
N         -13.129000    -12.823000     -7.885000
C         -11.830000    -13.954000    -10.455000
S         -12.345000    -15.383000     -9.436000
C         -10.959000    -14.337000    -11.463000
C         -11.207000    -16.415000    -10.282000
S         -10.045000    -13.462000    -12.755000
C         -10.531000    -15.643000    -11.267000
C         -10.748000    -17.706000     -9.792000
C          -9.240000    -14.990000    -13.113000
C          -9.583000    -16.033000    -12.241000
N         -10.151000    -18.513000    -10.647000
S         -11.226000    -18.369000     -8.197000
C          -9.813000    -19.678000     -9.928000
C         -10.370000    -19.820000     -8.680000
C         -14.693000     -4.435000    -10.309000
H         -15.770000     -6.448000    -11.801000
H         -15.270000     -8.893000    -11.448000
H         -12.143000     -7.830000     -8.664000
H         -12.278000     -9.858000    -11.973000
H          -8.533000    -15.095000    -13.926000
H          -9.017000    -16.957000    -12.265000
H          -9.180000    -20.373000    -10.463000
H         -10.184000    -20.655000     -8.018000
H         -13.746000     -3.883000    -10.353000
C         -15.558000     -3.849000     -9.118000
H         -15.165000     -4.160000    -11.261000
H         -16.445000     -4.432000     -8.841000
H         -16.055000     -2.918000     -9.419000
C         -14.810000     -3.639000     -7.769000
H         -14.774000     -4.575000     -7.197000
C         -15.468000     -2.486000     -6.888000
H         -13.760000     -3.413000     -7.990000
H         -16.553000     -2.639000     -6.937000
H         -15.128000     -1.521000     -7.284000
C         -15.122000     -2.596000     -5.386000
H         -15.724000     -3.390000     -4.928000
C         -15.589000     -1.340000     -4.554000
H         -14.058000     -2.784000     -5.192000
H         -15.314000     -0.467000     -5.158000
H         -15.190000     -1.272000     -3.534000
H         -16.683000     -1.417000     -4.532000
C          -7.283000    -18.629000     -5.995000
C          -7.111000    -17.500000     -5.159000
N          -8.338000    -19.469000     -5.808000
C          -8.071000    -17.269000     -4.190000
C          -9.215000    -19.260000     -4.802000
C          -9.108000    -18.159000     -3.967000
C         -10.054000    -18.028000     -2.871000
C          -9.566000    -17.613000     -1.625000
C         -11.453000    -18.297000     -2.924000
N         -10.309000    -17.595000     -0.499000
N         -12.180000    -18.660000     -4.066000
C         -12.216000    -18.231000     -1.704000
C         -11.612000    -17.894000     -0.476000
S         -13.693000    -19.032000     -3.518000
N         -13.515000    -18.619000     -1.889000
C         -12.386000    -17.683000      0.802000
S         -13.971000    -18.308000      1.082000
C         -11.873000    -16.991000      1.927000
C         -13.967000    -17.700000      2.734000
S         -10.364000    -16.295000      2.260000
C         -12.774000    -16.965000      2.943000
C         -15.018000    -17.953000      3.692000
C         -10.892000    -16.062000      3.951000
C         -12.175000    -16.447000      4.156000
N         -16.186000    -17.697000      3.077000
S         -14.938000    -17.987000      5.407000
C         -17.177000    -18.034000      3.954000
C         -16.683000    -18.289000      5.223000
C          -6.542000    -18.764000     -7.351000
H          -6.254000    -16.840000     -5.257000
H          -8.135000    -16.360000     -3.600000
H         -10.085000    -19.907000     -4.702000
H          -8.509000    -17.353000     -1.600000
H         -10.168000    -15.796000      4.710000
H         -12.675000    -16.410000      5.117000
H         -18.229000    -18.150000      3.728000
H         -17.147000    -18.499000      6.178000
H          -7.280000    -18.925000     -8.147000
C          -5.381000    -19.762000     -7.407000
H          -6.071000    -17.797000     -7.569000
H          -4.718000    -19.597000     -6.549000
H          -4.860000    -19.543000     -8.347000
C          -5.717000    -21.243000     -7.211000
H          -4.762000    -21.783000     -7.201000
C          -6.707000    -21.721000     -8.366000
H          -6.169000    -21.174000     -6.215000
H          -6.190000    -21.663000     -9.332000
H          -7.595000    -21.091000     -8.496000
C          -7.310000    -23.176000     -8.235000
H          -8.050000    -23.278000     -9.039000
C          -7.963000    -23.459000     -6.884000
H          -6.425000    -23.796000     -8.422000
H          -8.543000    -22.599000     -6.526000
H          -7.265000    -23.613000     -6.052000
H          -8.575000    -24.358000     -7.027000
$end

--------------------------------------------------------------

             Standard Nuclear Orientation (Angstroms)
    I     Atom           X                Y                Z
 ----------------------------------------------------------------
    1      C     -10.1749044811    -2.6434944444    -0.0062872786
    2      C     -10.1372381557    -1.9360936333    -1.1761741707
    3      N      -9.2498015723    -2.6127663153     0.9728273164
    4      C      -8.9987429614    -1.2105069866    -1.3745014524
    5      C      -8.1541090287    -1.7934650175     0.8297041764
    6      C      -7.9753450328    -1.1121373535    -0.3962330358
    7      C      -6.8781439228    -0.1170812802    -0.5114638274
    8      C      -7.1259209167     1.2517697185    -0.3886814807
    9      C      -5.5425138562    -0.4193954581    -0.6996059626
   10      N      -6.2153986551     2.2322758450    -0.5237442326
   11      N      -5.1121752492    -1.7035367893    -0.7115527118
   12      C      -4.5953636289     0.5124838017    -0.9337586735
   13      C      -4.9570069595     1.8653117885    -0.8196204258
   14      S      -3.5284439453    -1.6378274936    -1.0642259959
   15      N      -3.3368104749    -0.0110010906    -0.9559741244
   16      C      -4.0233999649     3.0054135505    -0.9920238824
   17      S      -2.3537424520     2.8226290612    -1.7162204167
   18      C      -4.2935874264     4.3253260724    -0.6661041526
   19      C      -2.0018550333     4.5047235718    -1.3661957007
   20      S      -5.6813276110     5.1850687388     0.1119091684
   21      C      -3.1404817029     5.0937960727    -0.7499912735
   22      C      -0.6631038803     5.0740751572    -1.3338518817
   23      C      -4.6805943182     6.6374814932     0.1136605398
   24      C      -3.3737204050     6.4298218881    -0.3498478888
   25      N      -0.5507582101     6.3873438292    -1.3710922577
   26      S       0.8190876425     4.0925249724    -1.5613283074
   27      C       0.8297557626     6.6718429176    -1.3302090110
   28      C       1.6866790823     5.6146970079    -1.5200561859
   29      C     -11.3628753170    -3.5763257145     0.2894814057
   30      H     -10.9758036183    -1.9518316935    -1.8667552872
   31      H      -8.8630348668    -0.6446884864    -2.2912771818
   32      H      -7.4440659002    -1.6985303445     1.6501309943
   33      H      -8.1235404733     1.6462131550    -0.2022985530
   34      H      -5.0497364882     7.5941200950     0.4606758764
   35      H      -2.6325054840     7.2106721893    -0.2250230192
   36      H       1.0732287904     7.7178112299    -1.2013285459
   37      H       2.7655560907     5.6896812164    -1.4984513431
   38      H     -11.6868170091    -3.3993780979     1.3225352868
   39      C     -11.1229069258    -5.1309280868     0.1004612080
   40      H     -12.2503007089    -3.2804472334    -0.2846658735
   41      H     -10.6155826819    -5.4259200303    -0.8263553136
   42      H     -12.0742654337    -5.6559645641    -0.0532420348
   43      C     -10.3020834318    -5.8366962628     1.2191859612
   44      H      -9.2254613216    -5.7146190058     1.0443775656
   45      C     -10.6623547541    -7.3834738717     1.3465343134
   46      H     -10.4869853155    -5.3117609436     2.1639987491
   47      H     -10.7133311636    -7.7754377419     0.3234015116
   48      H     -11.5990311620    -7.4679389336     1.9114625922
   49      C      -9.5520611423    -8.2120349061     2.0310448743
   50      H      -8.7339998707    -8.3860632029     1.3217537438
   51      C      -9.9978095683    -9.6905719234     2.3521143828
   52      H      -9.1546424553    -7.7472736154     2.9427089187
   53      H     -11.0105151579    -9.6104377688     2.7651227437
   54      H      -9.3299702083   -10.2533333053     3.0165804965
   55      H     -10.0598416310   -10.1774130980     1.3711012871
   56      C       2.9404868251     4.5422395771     2.4086937684
   57      C       2.6700386353     3.4290923568     3.2398869124
   58      N       3.5594691719     4.3700881014     1.2083526820
   59      C       3.0168744238     2.1767424919     2.7652852357
   60      C       3.9571218951     3.1426626000     0.8081715350
   61      C       3.6989091591     2.0148445765     1.5712099932
   62      C       4.2052683105     0.7342301233     1.1054632462
   63      C       4.7740872050    -0.1320767630     2.0482476564
   64      C       4.1996071860     0.2604192883    -0.2390969957
   65      N       5.4090760770    -1.2774907060     1.7241102911
   66      N       3.6311344122     0.9138730366    -1.3410493106
   67      C       4.8581363461    -0.9860007743    -0.5352411717
   68      C       5.4873808592    -1.7432319016     0.4732335987
   69      S       4.0827703108     0.0219794844    -2.6557385920
   70      N       4.8666171935    -1.2564053271    -1.8765015689
   71      C       6.0747166817    -3.1136148339     0.2409229220
   72      S       6.5299115638    -3.7153540482    -1.3121249000
   73      C       6.3609757637    -4.0330850815     1.2802920584
   74      C       7.1624367702    -5.1966498725    -0.6018724489
   75      S       6.2460912957    -3.9339015723     2.9682938920
   76      C       6.8984697099    -5.1799975752     0.7899605483
   77      C       7.8511740729    -6.2227823062    -1.3495803841
   78      C       7.1182820883    -5.4895628288     3.0767156450
   79      C       7.3825325098    -6.0267655294     1.8610166801
   80      N       7.1140247880    -6.4786533287    -2.4446264798
   81      S       9.0122096946    -7.3660208721    -0.8075629797
   82      C       7.8194439843    -7.3746836420    -3.1958204861
   83      C       8.9027926979    -7.8926805337    -2.5048380080
   84      C       2.2413376719     5.9106693341     2.6199577309
   85      H       2.2192512695     3.5433077568     4.2214156146
   86      H       2.7198101506     1.2436533554     3.2338729873
   87      H       4.3979563187     3.0139370057    -0.1790486696
   88      H       4.7262402609     0.2057929081     3.0821861242
   89      H       7.5071370847    -5.8242877804     4.0294821424
   90      H       7.9247693542    -6.9531167615     1.7102101836
   91      H       7.6287578923    -7.6473847031    -4.2256306364
   92      H       9.6293405224    -8.6646570141    -2.7230158536
   93      H       1.7483252060     6.2080338985     1.6857767932
   94      C       3.0893878569     7.0328445893     3.2270776369
   95      H       1.4360549499     5.7621003611     3.3506430243
   96      H       3.6109557877     6.6548018595     4.1147761150
   97      H       2.3729597477     7.8162055095     3.5029008282
   98      C       4.2793181623     7.5374911043     2.4060595108
   99      H       4.8046072361     8.2697518016     3.0318315622
  100      C       3.7557445413     8.1387665059     1.0251367922
  101      H       4.8265852298     6.5919078446     2.3197342206
  102      H       3.1415934222     9.0253170646     1.2267689073
  103      H       3.0928767514     7.4732564204     0.4594101629
  104      C       4.8509959404     8.5496233449    -0.0376030775
  105      H       4.3085716521     8.8198031010    -0.9525887554
  106      C       5.8687509433     7.4515369604    -0.3377364582
  107      H       5.2979343067     9.4299715391     0.4397093502
  108      H       5.3927408415     6.4651326129    -0.4054479501
  109      H       6.6149682082     7.2802398500     0.4477322513
  110      H       6.3691698981     7.7496945620    -1.2671862494
 ----------------------------------------------------------------

   10   -5663.4906795122      4.87E-06 Convergence criterion met
 Total energy in the final basis set = -5663.4906795122

                    Orbital Energies (a.u.)
 --------------------------------------------------------------

 Alpha MOs
 -- Occupied --
-88.989 -88.988 -88.938 -88.927 -88.923 -88.920 -88.912 -88.911
-14.390 -14.390 -14.382 -14.374 -14.348 -14.346 -14.346 -14.340
-14.333 -14.328 -10.270 -10.267 -10.266 -10.265 -10.259 -10.259
-10.248 -10.243 -10.243 -10.241 -10.241 -10.240 -10.239 -10.236
-10.235 -10.234 -10.233 -10.230 -10.230 -10.226 -10.226 -10.226
-10.225 -10.224 -10.223 -10.222 -10.220 -10.214 -10.213 -10.210
-10.209 -10.208 -10.207 -10.206 -10.206 -10.205 -10.195 -10.190
-10.186 -10.185 -10.180 -10.178 -10.176 -10.176 -10.173 -10.173
-10.172 -10.169 -10.168 -10.165  -8.043  -8.043  -7.999  -7.986
 -7.982  -7.981  -7.972  -7.970  -6.009  -6.008  -6.003  -6.003
 -6.001  -6.001  -5.963  -5.960  -5.956  -5.950  -5.946  -5.946
 -5.945  -5.943  -5.943  -5.941  -5.939  -5.937  -5.936  -5.935
 -5.932  -5.931  -5.928  -5.926  -1.037  -1.015  -0.976  -0.961
 -0.957  -0.957  -0.938  -0.933  -0.917  -0.902  -0.895  -0.891
 -0.851  -0.839  -0.835  -0.834  -0.815  -0.808  -0.802  -0.801
 -0.798  -0.796  -0.796  -0.789  -0.779  -0.778  -0.766  -0.759
 -0.750  -0.744  -0.741  -0.733  -0.731  -0.721  -0.706  -0.703
 -0.691  -0.686  -0.671  -0.670  -0.656  -0.651  -0.649  -0.638
 -0.637  -0.635  -0.627  -0.626  -0.616  -0.607  -0.598  -0.593
 -0.592  -0.581  -0.579  -0.574  -0.573  -0.570  -0.562  -0.548
 -0.547  -0.546  -0.543  -0.537  -0.527  -0.521  -0.516  -0.509
 -0.508  -0.502  -0.502  -0.492  -0.491  -0.489  -0.475  -0.475
 -0.473  -0.469  -0.465  -0.463  -0.460  -0.459  -0.452  -0.445
 -0.444  -0.442  -0.436  -0.434  -0.432  -0.429  -0.428  -0.427
 -0.424  -0.423  -0.418  -0.417  -0.416  -0.416  -0.411  -0.411
 -0.407  -0.406  -0.405  -0.404  -0.401  -0.397  -0.397  -0.397
 -0.393  -0.392  -0.391  -0.386  -0.384  -0.383  -0.382  -0.380
 -0.378  -0.375  -0.371  -0.370  -0.367  -0.357  -0.354  -0.354
 -0.352  -0.351  -0.349  -0.345  -0.345  -0.342  -0.341  -0.338
 -0.338  -0.333  -0.332  -0.330  -0.328  -0.319  -0.313  -0.311
 -0.309  -0.309  -0.306  -0.305  -0.304  -0.300  -0.299  -0.296
 -0.295  -0.291  -0.289  -0.287  -0.286  -0.283  -0.283  -0.278
 -0.276  -0.273  -0.266  -0.257  -0.254  -0.252  -0.251  -0.249
 -0.247  -0.244  -0.237  -0.234  -0.195  -0.189

          Ground-State Mulliken Net Atomic Charges

     Atom                 Charge (a.u.)
  ----------------------------------------
      1 C                     0.279381
      2 C                    -0.096357
      3 N                    -0.485543
      4 C                    -0.068970
      5 C                     0.097895
      6 C                     0.026949
      7 C                    -0.014324
      8 C                     0.061477
      9 C                     0.224208
     10 N                    -0.509855
     11 N                    -0.543049
     12 C                     0.210619
     13 C                     0.291899
     14 S                     0.607265
     15 N                    -0.543381
     16 C                    -0.242888
     17 S                     0.315899
     18 C                    -0.096245
     19 C                    -0.205346
     20 S                     0.285891
     21 C                     0.123095
     22 C                     0.045259
     23 C                    -0.311790
     24 C                    -0.051236
     25 N                    -0.422487
     26 S                     0.278332
     27 C                     0.105743
     28 C                    -0.297617
     29 C                    -0.232559
     30 H                     0.100290
     31 H                     0.095283
     32 H                     0.115627
     33 H                     0.109702
     34 H                     0.127803
     35 H                     0.122580
     36 H                     0.111818
     37 H                     0.153628
     38 H                     0.116512
     39 C                    -0.184097
     40 H                     0.086398
     41 H                     0.093659
     42 H                     0.092552
     43 C                    -0.173064
     44 H                     0.104710
     45 C                    -0.174942
     46 H                     0.098936
     47 H                     0.091189
     48 H                     0.093583
     49 C                    -0.188059
     50 H                     0.094461
     51 C                    -0.319284
     52 H                     0.094937
     53 H                     0.099010
     54 H                     0.101360
     55 H                     0.099864
     56 C                     0.266643
     57 C                    -0.134122
     58 N                    -0.496635
     59 C                    -0.073099
     60 C                     0.088721
     61 C                     0.056228
     62 C                     0.010437
     63 C                     0.070997
     64 C                     0.220835
     65 N                    -0.548356
     66 N                    -0.558936
     67 C                     0.206556
     68 C                     0.335147
     69 S                     0.605913
     70 N                    -0.576134
     71 C                    -0.227460
     72 S                     0.374684
     73 C                    -0.099161
     74 C                    -0.194697
     75 S                     0.281106
     76 C                     0.119169
     77 C                     0.015206
     78 C                    -0.313417
     79 C                    -0.063963
     80 N                    -0.412850
     81 S                     0.284253
     82 C                     0.134304
     83 C                    -0.305815
     84 C                    -0.216280
     85 H                     0.098942
     86 H                     0.102819
     87 H                     0.116413
     88 H                     0.114163
     89 H                     0.129066
     90 H                     0.106642
     91 H                     0.124159
     92 H                     0.126700
     93 H                     0.131777
     94 C                    -0.184850
     95 H                     0.096265
     96 H                     0.084649
     97 H                     0.088642
     98 C                    -0.166153
     99 H                     0.089886
    100 C                    -0.189998
    101 H                     0.109556
    102 H                     0.079794
    103 H                     0.102514
    104 C                    -0.179057
    105 H                     0.084667
    106 C                    -0.319665
    107 H                     0.091752
    108 H                     0.115504
    109 H                     0.104369
    110 H                     0.095450
  ----------------------------------------
  Sum of atomic charges =     0.000000

                    Cartesian Multipole Moments
 -----------------------------------------------------------------
    Charge (ESU x 10^10)
                 0.0000
    Dipole Moment (Debye)
         X       3.3652      Y      -2.5540      Z       0.1387
       Tot       4.2269
    Quadrupole Moments (Debye-Ang)
        XX    -410.6302     XY     -36.8477     YY    -422.6204
        XZ      11.0145     YZ      18.6442     ZZ    -429.6252

 Total job time:  96.79s(wall), 1034.50s(cpu)
        *  Thank you very much for using Q-Chem.  Have a nice day.  *
