 Q-Chem 4.4, Q-Chem, Inc., Pleasanton, CA (2016)
 Q-Chem 4.4.2 for Intel X86 Linux

User input:
--------------------------------------------------------------
$comment
SP
$end

$rem
MEM_STATIC 5000
MEM_TOTAL 20000
JOBTYPE SP
EXCHANGE B3LYP
BASIS 6-31g(d,p)
$end

$molecule
0 1
C          -9.384000    -14.784000     -6.480000
C          -8.765000    -14.155000     -5.389000
N         -10.680000    -15.144000     -6.307000
C          -9.412000    -13.866000     -4.186000
C         -11.386000    -14.804000     -5.199000
C         -10.773000    -14.186000     -4.054000
C         -11.498000    -13.966000     -2.777000
C         -10.867000    -14.191000     -1.546000
C         -12.914000    -13.660000     -2.630000
N         -11.463000    -14.056000     -0.346000
N         -13.727000    -13.460000     -3.679000
C         -13.477000    -13.464000     -1.402000
C         -12.717000    -13.628000     -0.228000
S         -15.100000    -13.048000     -2.994000
N         -14.748000    -12.943000     -1.411000
C         -13.248000    -13.394000      1.125000
S         -14.826000    -13.764000      1.699000
C         -12.404000    -13.005000      2.129000
C         -14.388000    -13.413000      3.375000
S         -10.782000    -12.473000      2.003000
C         -13.078000    -12.957000      3.351000
C         -15.101000    -13.810000      4.573000
C         -10.948000    -12.227000      3.820000
C         -12.173000    -12.557000      4.363000
N         -14.500000    -13.714000      5.722000
S         -16.634000    -14.579000      4.497000
C         -15.411000    -14.245000      6.706000
C         -16.592000    -14.650000      6.269000
C          -8.641000    -15.172000     -7.747000
H          -7.715000    -13.918000     -5.531000
H          -8.889000    -13.327000     -3.402000
H         -12.347000    -15.309000     -5.116000
H          -9.827000    -14.513000     -1.571000
H         -10.036000    -11.856000      4.268000
H         -12.381000    -12.414000      5.417000
H         -15.130000    -14.233000      7.751000
H         -17.438000    -15.032000      6.825000
H          -7.923000    -15.980000     -7.558000
C          -7.944000    -13.961000     -8.409000
H          -9.432000    -15.534000     -8.415000
H          -7.633000    -14.207000     -9.432000
H          -7.032000    -13.695000     -7.860000
C          -8.835000    -12.708000     -8.379000
H          -9.798000    -12.944000     -8.848000
C          -8.271000    -11.507000     -9.123000
H          -9.064000    -12.413000     -7.347000
H          -9.041000    -10.727000     -9.179000
H          -7.973000    -11.745000    -10.151000
C          -7.040000    -10.792000     -8.571000
H          -6.177000    -11.466000     -8.510000
C          -7.286000    -10.140000     -7.238000
H          -6.735000     -9.998000     -9.264000
H          -6.363000     -9.762000     -6.780000
H          -7.712000    -10.844000     -6.512000
H          -7.949000     -9.278000     -7.385000
C          -7.283000    -18.629000     -5.995000
C          -7.111000    -17.500000     -5.159000
N          -8.338000    -19.469000     -5.808000
C          -8.071000    -17.269000     -4.190000
C          -9.215000    -19.260000     -4.802000
C          -9.108000    -18.159000     -3.967000
C         -10.054000    -18.028000     -2.871000
C          -9.566000    -17.613000     -1.625000
C         -11.453000    -18.297000     -2.924000
N         -10.309000    -17.595000     -0.499000
N         -12.180000    -18.660000     -4.066000
C         -12.216000    -18.231000     -1.704000
C         -11.612000    -17.894000     -0.476000
S         -13.693000    -19.032000     -3.518000
N         -13.515000    -18.619000     -1.889000
C         -12.386000    -17.683000      0.802000
S         -13.971000    -18.308000      1.082000
C         -11.873000    -16.991000      1.927000
C         -13.967000    -17.700000      2.734000
S         -10.364000    -16.295000      2.260000
C         -12.774000    -16.965000      2.943000
C         -15.018000    -17.953000      3.692000
C         -10.892000    -16.062000      3.951000
C         -12.175000    -16.447000      4.156000
N         -16.186000    -17.697000      3.077000
S         -14.938000    -17.987000      5.407000
C         -17.177000    -18.034000      3.954000
C         -16.683000    -18.289000      5.223000
C          -6.542000    -18.764000     -7.351000
H          -6.254000    -16.840000     -5.257000
H          -8.135000    -16.360000     -3.600000
H         -10.085000    -19.907000     -4.702000
H          -8.509000    -17.353000     -1.600000
H         -10.168000    -15.796000      4.710000
H         -12.675000    -16.410000      5.117000
H         -18.229000    -18.150000      3.728000
H         -17.147000    -18.499000      6.178000
H          -7.280000    -18.925000     -8.147000
C          -5.381000    -19.762000     -7.407000
H          -6.071000    -17.797000     -7.569000
H          -4.718000    -19.597000     -6.549000
H          -4.860000    -19.543000     -8.347000
C          -5.717000    -21.243000     -7.211000
H          -4.762000    -21.783000     -7.201000
C          -6.707000    -21.721000     -8.366000
H          -6.169000    -21.174000     -6.215000
H          -6.190000    -21.663000     -9.332000
H          -7.595000    -21.091000     -8.496000
C          -7.310000    -23.176000     -8.235000
H          -8.050000    -23.278000     -9.039000
C          -7.963000    -23.459000     -6.884000
H          -6.425000    -23.796000     -8.422000
H          -8.543000    -22.599000     -6.526000
H          -7.265000    -23.613000     -6.052000
H          -8.575000    -24.358000     -7.027000
$end

--------------------------------------------------------------

             Standard Nuclear Orientation (Angstroms)
    I     Atom           X                Y                Z
 ----------------------------------------------------------------
    1      C      -5.3273432473     2.0251576700     0.6264437128
    2      C      -4.6305400626     2.4795433083    -0.5036368212
    3      N      -4.5684681144     1.6266272947     1.6773609658
    4      C      -3.2390261724     2.5652283277    -0.5790435245
    5      C      -3.2198885030     1.7770947595     1.6971744414
    6      C      -2.4758552950     2.2119394663     0.5456351817
    7      C      -0.9915889014     2.2167754176     0.5045999973
    8      C      -0.3045198573     1.8059708544    -0.6457576598
    9      C      -0.0980063685     2.4783787560     1.6241422923
   10      N       1.0363029665     1.7407288028    -0.7524283208
   11      N      -0.5412970985     2.8332973276     2.8402410285
   12      C       1.2583491460     2.4692838211     1.4705649495
   13      C       1.8397937796     2.1293336047     0.2339858018
   14      S       0.8010256124     3.1142689435     3.6423150220
   15      N       1.9762996793     2.9697379017     2.5293641490
   16      C       3.2910490344     2.1382029689    -0.0132095056
   17      S       4.5325318837     1.6624718496     1.0771391712
   18      C       3.7645958983     2.3722534462    -1.2752105918
   19      C       5.7776955603     1.7469802003    -0.1744385360
   20      S       2.9031340681     2.9369948815    -2.6422272802
   21      C       5.1515605045     2.2166853902    -1.3198397436
   22      C       7.1006653730     1.1554961603    -0.1415827132
   23      C       4.5620773131     2.8881117844    -3.4391455649
   24      C       5.6022089718     2.4610519235    -2.6390705636
   25      N       7.7795719774     1.0742755729    -1.2475244109
   26      S       7.7115765513     0.3900831407     1.2684373014
   27      C       9.0035731417     0.3822583580    -0.9264771806
   28      C       9.1805260349     0.0379543896     0.3383933468
   29      C      -6.8363902034     1.8531052758     0.6589592168
   30      H      -5.2547448214     2.7487565267    -1.3502333380
   31      H      -2.7659037136     2.9785695850    -1.4644869976
   32      H      -2.7295687047     1.2538073519     2.5164373934
   33      H      -0.9044736798     1.5046009470    -1.5031610596
   34      H       4.5273687956     3.1938659690    -4.4761598837
   35      H       6.6217875988     2.4316504404    -3.0054364683
   36      H       9.7463090615     0.2308552105    -1.6988439590
   37      H      10.0300911064    -0.4379537487     0.8101206336
   38      H      -7.1596893246     1.0339960200     0.0042480551
   39      C      -7.5808273497     3.1624572598     0.3096961108
   40      H      -7.0486822507     1.5927688933     1.7030406574
   41      H      -8.6416460558     3.0864791312     0.5792457292
   42      H      -7.5450219892     3.3484579637    -0.7710548847
   43      C      -6.9198032204     4.3838413694     0.9700429570
   44      H      -6.8574455813     4.2140855588     2.0518564759
   45      C      -7.6669847261     5.6947983817     0.7773138484
   46      H      -5.8863579748     4.5077395590     0.6220053688
   47      H      -7.2084229596     6.4644359137     1.4112027784
   48      H      -8.7242343628     5.6273583127     1.0599921866
   49      C      -7.7278229202     6.3273776005    -0.6110060881
   50      H      -8.2146275421     5.6626967129    -1.3348752598
   51      C      -6.3797065681     6.7554830682    -1.1226866620
   52      H      -8.3573580400     7.2253265013    -0.5780924975
   53      H      -6.4105800015     7.0666848888    -2.1747214799
   54      H      -5.6473720466     5.9396598354    -1.0748682412
   55      H      -6.0412892866     7.6218616325    -0.5403775286
   56      C      -6.5427771658    -1.8224476852    -1.1489729764
   57      C      -5.7614362055    -0.8392085360    -1.8015586638
   58      N      -5.9641491246    -2.6941372964    -0.2778008857
   59      C      -4.4160504468    -0.7772278599    -1.4853031407
   60      C      -4.6330922805    -2.6587755867    -0.0500219857
   61      C      -3.8233075048    -1.7037979849    -0.6442789983
   62      C      -2.3918459518    -1.7606125754    -0.3973317883
   63      C      -1.5272859196    -1.5437628193    -1.4782559918
   64      C      -1.7585828639    -2.0345159873     0.8501960802
   65      N      -0.1905653692    -1.7144669224    -1.4127786728
   66      N      -2.4052081436    -2.2194904676     2.0798798563
   67      C      -0.3251482737    -2.1730665107     0.8817242929
   68      C       0.4535926403    -2.0289486941    -0.2841065884
   69      S      -1.2193249181    -2.6922688428     3.1277436755
   70      N       0.1280864161    -2.5421892042     2.1188567648
   71      C       1.9625182844    -2.0337453554    -0.2829264421
   72      S       2.9221405912    -2.7144008514     0.9808310995
   73      C       2.7514223841    -1.5238657860    -1.3437332795
   74      C       4.4060494224    -2.3775891512     0.0957568317
   75      S       2.3600043300    -0.8717808305    -2.8583167594
   76      C       4.0770672300    -1.6710323386    -1.0873336922
   77      C       5.7195076998    -2.7927205230     0.5303454850
   78      C       4.0958151991    -0.9177569756    -3.2795065278
   79      C       4.8715547332    -1.3459118428    -2.2542014098
   80      N       5.8336039863    -2.4559912635     1.8271031505
   81      S       7.1260137373    -3.0987799082    -0.4060568960
   82      C       7.0357187359    -2.9404050641     2.2572686983
   83      C       7.8208538229    -3.3885294505     1.2074261247
   84      C      -8.0899831093    -1.7305884152    -1.0876733591
   85      H      -6.1890166040    -0.1617738536    -2.5349823162
   86      H      -3.7536127486     0.0252303861    -1.7946800297
   87      H      -4.1952997192    -3.3238527032     0.6926213355
   88      H      -2.0103627110    -1.2783897272    -2.4172383855
   89      H       4.4057598174    -0.7675006928    -4.3053575809
   90      H       5.9467887404    -1.4686302127    -2.3150457322
   91      H       7.3666135533    -3.0315213033     3.2836421444
   92      H       8.8372381342    -3.7536801728     1.1363706410
   93      H      -8.4090718644    -1.7714643574    -0.0385344152
   94      C      -8.8748573137    -2.6928626366    -1.9849257239
   95      H      -8.3775519645    -0.7356095066    -1.4506817956
   96      H      -8.4642738928    -2.6588256063    -3.0014003842
   97      H      -9.9064491759    -2.3205343596    -1.9710735015
   98      C      -8.7485879080    -4.1900971493    -1.6899378409
   99      H      -9.3065419597    -4.7132644418    -2.4765179451
  100      C      -9.2879519491    -4.4896802172    -0.2195823000
  101      H      -7.6637246527    -4.2862311107    -1.8120483595
  102      H     -10.3625405470    -4.2721826531    -0.1775923614
  103      H      -8.8530672940    -3.8577315422     0.5639100158
  104      C      -9.0762415483    -5.9540942385     0.3358142074
  105      H      -9.3926419496    -5.9354777848     1.3865112207
  106      C      -7.6381326882    -6.4567199714     0.2313667126
  107      H      -9.7766107080    -6.5256616810    -0.2849818128
  108      H      -6.9148578739    -5.6718407852     0.4863220147
  109      H      -7.3131217781    -6.7330118455    -0.7791651813
  110      H      -7.5743252655    -7.3287068341     0.8937574764
 ----------------------------------------------------------------

   10   -5663.4916169947      4.37E-06 Convergence criterion met
 Total energy in the final basis set = -5663.4916169947

                    Orbital Energies (a.u.)
 --------------------------------------------------------------

 Alpha MOs
 -- Occupied --
-88.987 -88.984 -88.934 -88.921 -88.921 -88.917 -88.904 -88.901
-14.390 -14.384 -14.384 -14.384 -14.345 -14.343 -14.342 -14.339
-14.328 -14.327 -10.266 -10.265 -10.261 -10.259 -10.258 -10.255
-10.254 -10.249 -10.236 -10.236 -10.234 -10.234 -10.233 -10.233
-10.232 -10.231 -10.230 -10.230 -10.229 -10.226 -10.226 -10.224
-10.223 -10.220 -10.220 -10.218 -10.218 -10.217 -10.216 -10.213
-10.205 -10.202 -10.202 -10.202 -10.199 -10.199 -10.195 -10.193
-10.189 -10.186 -10.186 -10.176 -10.175 -10.174 -10.173 -10.172
-10.169 -10.167 -10.167 -10.157  -8.043  -8.038  -7.995  -7.980
 -7.980  -7.979  -7.964  -7.961  -6.008  -6.003  -6.002  -6.001
 -5.998  -5.996  -5.959  -5.956  -5.952  -5.945  -5.944  -5.943
 -5.941  -5.940  -5.940  -5.937  -5.937  -5.936  -5.928  -5.926
 -5.925  -5.922  -5.920  -5.917  -1.053  -1.010  -0.971  -0.965
 -0.961  -0.951  -0.933  -0.931  -0.915  -0.910  -0.909  -0.886
 -0.843  -0.839  -0.834  -0.833  -0.812  -0.810  -0.808  -0.804
 -0.799  -0.797  -0.794  -0.790  -0.786  -0.774  -0.768  -0.760
 -0.752  -0.745  -0.742  -0.736  -0.724  -0.717  -0.712  -0.701
 -0.696  -0.686  -0.672  -0.666  -0.656  -0.651  -0.644  -0.644
 -0.640  -0.630  -0.626  -0.622  -0.618  -0.611  -0.599  -0.594
 -0.587  -0.586  -0.585  -0.576  -0.573  -0.569  -0.550  -0.549
 -0.542  -0.541  -0.540  -0.537  -0.524  -0.522  -0.515  -0.509
 -0.505  -0.504  -0.501  -0.496  -0.489  -0.485  -0.478  -0.471
 -0.470  -0.468  -0.467  -0.464  -0.458  -0.457  -0.455  -0.447
 -0.440  -0.440  -0.437  -0.436  -0.435  -0.431  -0.430  -0.429
 -0.427  -0.424  -0.424  -0.419  -0.418  -0.414  -0.413  -0.412
 -0.409  -0.405  -0.404  -0.402  -0.398  -0.397  -0.395  -0.394
 -0.391  -0.390  -0.388  -0.387  -0.385  -0.383  -0.379  -0.378
 -0.377  -0.376  -0.371  -0.370  -0.370  -0.365  -0.357  -0.354
 -0.350  -0.348  -0.347  -0.345  -0.343  -0.342  -0.340  -0.339
 -0.336  -0.336  -0.334  -0.332  -0.326  -0.324  -0.322  -0.316
 -0.316  -0.308  -0.306  -0.303  -0.303  -0.301  -0.300  -0.297
 -0.293  -0.289  -0.286  -0.284  -0.283  -0.282  -0.278  -0.277
 -0.272  -0.268  -0.266  -0.261  -0.254  -0.245  -0.245  -0.243
 -0.239  -0.236  -0.231  -0.230  -0.194  -0.187

          Ground-State Mulliken Net Atomic Charges

     Atom                 Charge (a.u.)
  ----------------------------------------
      1 C                     0.286998
      2 C                    -0.120720
      3 N                    -0.484087
      4 C                    -0.089624
      5 C                     0.091401
      6 C                     0.025023
      7 C                     0.051064
      8 C                     0.052319
      9 C                     0.201344
     10 N                    -0.513322
     11 N                    -0.517627
     12 C                     0.171713
     13 C                     0.274791
     14 S                     0.606821
     15 N                    -0.531363
     16 C                    -0.198071
     17 S                     0.330961
     18 C                    -0.076632
     19 C                    -0.244894
     20 S                     0.259411
     21 C                     0.141294
     22 C                     0.102744
     23 C                    -0.305432
     24 C                    -0.042751
     25 N                    -0.468800
     26 S                     0.263485
     27 C                     0.111347
     28 C                    -0.295408
     29 C                    -0.237805
     30 H                     0.080026
     31 H                     0.105362
     32 H                     0.118981
     33 H                     0.106288
     34 H                     0.117307
     35 H                     0.127310
     36 H                     0.107796
     37 H                     0.128355
     38 H                     0.121895
     39 C                    -0.187336
     40 H                     0.126523
     41 H                     0.099732
     42 H                     0.092064
     43 C                    -0.175316
     44 H                     0.101475
     45 C                    -0.175093
     46 H                     0.104399
     47 H                     0.086404
     48 H                     0.085097
     49 C                    -0.176693
     50 H                     0.086313
     51 C                    -0.312897
     52 H                     0.091388
     53 H                     0.095111
     54 H                     0.099592
     55 H                     0.102465
     56 C                     0.261896
     57 C                    -0.145766
     58 N                    -0.489614
     59 C                    -0.061971
     60 C                     0.091373
     61 C                     0.058189
     62 C                     0.012958
     63 C                     0.063977
     64 C                     0.217084
     65 N                    -0.547229
     66 N                    -0.554831
     67 C                     0.203722
     68 C                     0.338553
     69 S                     0.600730
     70 N                    -0.577468
     71 C                    -0.233308
     72 S                     0.365343
     73 C                    -0.090135
     74 C                    -0.195351
     75 S                     0.303351
     76 C                     0.117000
     77 C                     0.018329
     78 C                    -0.310095
     79 C                    -0.065108
     80 N                    -0.409851
     81 S                     0.287064
     82 C                     0.130881
     83 C                    -0.305901
     84 C                    -0.206837
     85 H                     0.092222
     86 H                     0.094875
     87 H                     0.120924
     88 H                     0.110533
     89 H                     0.124383
     90 H                     0.110986
     91 H                     0.120400
     92 H                     0.120608
     93 H                     0.125852
     94 C                    -0.186734
     95 H                     0.089705
     96 H                     0.083992
     97 H                     0.086796
     98 C                    -0.165877
     99 H                     0.088340
    100 C                    -0.184085
    101 H                     0.110749
    102 H                     0.077718
    103 H                     0.105601
    104 C                    -0.177014
    105 H                     0.087688
    106 C                    -0.317630
    107 H                     0.087523
    108 H                     0.122012
    109 H                     0.099825
    110 H                     0.092899
  ----------------------------------------
  Sum of atomic charges =     0.000000

                    Cartesian Multipole Moments
 -----------------------------------------------------------------
    Charge (ESU x 10^10)
                 0.0000
    Dipole Moment (Debye)
         X       3.4882      Y       0.9087      Z      -2.1785
       Tot       4.2118
    Quadrupole Moments (Debye-Ang)
        XX    -392.6576     XY     -34.0492     YY    -454.0257
        XZ      12.5139     YZ      -8.2510     ZZ    -430.0824

 Total job time:  123.33s(wall), 1331.01s(cpu)
        *  Thank you very much for using Q-Chem.  Have a nice day.  *
