 Q-Chem 4.4, Q-Chem, Inc., Pleasanton, CA (2016)
 Q-Chem 4.4.2 for Intel X86 Linux

User input:
--------------------------------------------------------------
$comment
SP
$end

$rem
MEM_STATIC 5000
MEM_TOTAL 20000
JOBTYPE SP
EXCHANGE B3LYP
BASIS 6-31g(d,p)
$end

$molecule
0 1
C         -12.874000    -26.371000      4.645000
C         -12.397000    -27.261000      3.624000
N         -13.254000    -25.105000      4.348000
C         -12.630000    -26.900000      2.257000
C         -13.379000    -24.749000      3.019000
C         -13.006000    -25.555000      1.936000
C         -13.107000    -25.142000      0.462000
C         -13.505000    -26.078000     -0.544000
C         -12.868000    -23.843000     -0.014000
N         -13.660000    -25.792000     -1.843000
N         -12.414000    -22.902000      0.803000
C         -12.913000    -23.533000     -1.388000
C         -13.396000    -24.543000     -2.294000
S         -12.457000    -21.612000     -0.186000
N         -12.715000    -22.232000     -1.666000
C         -13.640000    -24.430000     -3.745000
S         -14.860000    -25.286000     -4.740000
C         -12.854000    -23.665000     -4.591000
C         -14.271000    -24.643000     -6.203000
S         -11.360000    -22.846000     -4.301000
C         -13.186000    -23.862000     -5.937000
C         -14.578000    -25.102000     -7.544000
C         -11.319000    -22.536000     -6.055000
C         -12.271000    -23.154000     -6.791000
N         -15.478000    -26.065000     -7.658000
S         -13.817000    -24.678000     -9.064000
C         -15.504000    -26.537000     -8.926000
C         -14.766000    -25.854000     -9.805000
C         -12.689000    -26.680000      6.100000
H         -11.947000    -28.211000      3.897000
H         -12.348000    -27.642000      1.516000
H         -13.672000    -23.721000      2.810000
H         -13.758000    -27.105000     -0.285000
H         -10.559000    -21.869000     -6.440000
H         -12.393000    -23.074000     -7.865000
H         -16.198000    -27.314000     -9.219000
H         -14.728000    -26.102000    -10.858000
H         -13.478000    -27.374000      6.416000
C         -12.777000    -25.503000      7.066000
H         -11.717000    -27.142000      6.314000
H         -13.765000    -25.027000      7.063000
H         -12.143000    -24.728000      6.618000
C         -12.338000    -25.951000      8.447000
H         -13.042000    -26.696000      8.839000
C         -12.581000    -24.707000      9.290000
H         -11.362000    -26.419000      8.625000
H         -13.640000    -24.500000      9.489000
H         -12.145000    -23.819000      8.816000
C         -12.148000    -24.986000     10.758000
H         -12.785000    -25.762000     11.201000
C         -12.414000    -23.886000     11.813000
H         -11.144000    -25.421000     10.834000
H         -12.152000    -24.315000     12.788000
H         -13.482000    -23.688000     11.659000
H         -11.797000    -23.006000     11.595000
C          -7.283000    -18.629000     -5.995000
C          -7.111000    -17.500000     -5.159000
N          -8.338000    -19.469000     -5.808000
C          -8.071000    -17.269000     -4.190000
C          -9.215000    -19.260000     -4.802000
C          -9.108000    -18.159000     -3.967000
C         -10.054000    -18.028000     -2.871000
C          -9.566000    -17.613000     -1.625000
C         -11.453000    -18.297000     -2.924000
N         -10.309000    -17.595000     -0.499000
N         -12.180000    -18.660000     -4.066000
C         -12.216000    -18.231000     -1.704000
C         -11.612000    -17.894000     -0.476000
S         -13.693000    -19.032000     -3.518000
N         -13.515000    -18.619000     -1.889000
C         -12.386000    -17.683000      0.802000
S         -13.971000    -18.308000      1.082000
C         -11.873000    -16.991000      1.927000
C         -13.967000    -17.700000      2.734000
S         -10.364000    -16.295000      2.260000
C         -12.774000    -16.965000      2.943000
C         -15.018000    -17.953000      3.692000
C         -10.892000    -16.062000      3.951000
C         -12.175000    -16.447000      4.156000
N         -16.186000    -17.697000      3.077000
S         -14.938000    -17.987000      5.407000
C         -17.177000    -18.034000      3.954000
C         -16.683000    -18.289000      5.223000
C          -6.542000    -18.764000     -7.351000
H          -6.254000    -16.840000     -5.257000
H          -8.135000    -16.360000     -3.600000
H         -10.085000    -19.907000     -4.702000
H          -8.509000    -17.353000     -1.600000
H         -10.168000    -15.796000      4.710000
H         -12.675000    -16.410000      5.117000
H         -18.229000    -18.150000      3.728000
H         -17.147000    -18.499000      6.178000
H          -7.280000    -18.925000     -8.147000
C          -5.381000    -19.762000     -7.407000
H          -6.071000    -17.797000     -7.569000
H          -4.718000    -19.597000     -6.549000
H          -4.860000    -19.543000     -8.347000
C          -5.717000    -21.243000     -7.211000
H          -4.762000    -21.783000     -7.201000
C          -6.707000    -21.721000     -8.366000
H          -6.169000    -21.174000     -6.215000
H          -6.190000    -21.663000     -9.332000
H          -7.595000    -21.091000     -8.496000
C          -7.310000    -23.176000     -8.235000
H          -8.050000    -23.278000     -9.039000
C          -7.963000    -23.459000     -6.884000
H          -6.425000    -23.796000     -8.422000
H          -8.543000    -22.599000     -6.526000
H          -7.265000    -23.613000     -6.052000
H          -8.575000    -24.358000     -7.027000
$end

--------------------------------------------------------------

             Standard Nuclear Orientation (Angstroms)
    I     Atom           X                Y                Z
 ----------------------------------------------------------------
    1      C       5.6030313987     4.5578897764     2.0329409691
    2      C       4.4797724958     5.2770988832     2.5650102295
    3      N       5.4280162290     3.5013163767     1.2032498571
    4      C       3.1990437227     5.0650360115     1.9583289721
    5      C       4.1627423484     3.2567670458     0.7053747404
    6      C       3.0022110858     3.9335543274     1.1013294904
    7      C       1.5919334409     3.6327343024     0.5778122730
    8      C       0.6569229802     4.6846366005     0.3213108236
    9      C       1.1188592629     2.3466655351     0.2723193142
   10      N      -0.5751743510     4.5148999836    -0.1750233859
   11      N       1.8577409781     1.2785603259     0.5411893070
   12      C      -0.2079304646     2.1206623481    -0.1454755857
   13      C      -1.0303395841     3.2667537022    -0.4358939876
   14      S       0.9384103589     0.1135755361    -0.1234246050
   15      N      -0.4788421695     0.8388911568    -0.4500383237
   16      C      -2.3989311520     3.2952853838    -0.9871190444
   17      S      -3.1562464950     4.5436805824    -2.0259375558
   18      C      -3.3605470200     2.3452726391    -0.6846166358
   19      C      -4.6865207041     3.7970131818    -1.9873676426
   20      S      -3.3495966122     1.0673336088     0.4788475550
   21      C      -4.6184658211     2.6912978260    -1.1931988414
   22      C      -5.9527862961     4.3815789052    -2.3849419946
   23      C      -5.0657168405     0.8270409501     0.0647367000
   24      C      -5.6155102761     1.7525854301    -0.7544205460
   25      N      -5.9147166649     5.5919102890    -2.9178712999
   26      S      -7.5801714237     3.7865286574    -2.1264272964
   27      C      -7.1661051980     6.0929092101    -3.0374991415
   28      C      -8.1530171464     5.2373405365    -2.7586065983
   29      C       6.9811739917     4.7335411722     2.5956136807
   30      H       4.6272262226     6.0134581257     3.3495874816
   31      H       2.3936435803     5.6988511839     2.3171854028
   32      H       4.0490160254     2.3924648080     0.0524107558
   33      H       0.9288491905     5.7270160008     0.4804344293
   34      H      -5.5737635030    -0.0391944978     0.4675254007
   35      H      -6.6403489697     1.7577206711    -1.1071800694
   36      H      -7.3386778812     7.0663250453    -3.4778334244
   37      H      -9.1996114805     5.4979169690    -2.8507869787
   38      H       7.4266004387     5.6374182842     2.1613160330
   39      C       7.9817987706     3.6169332606     2.3160321657
   40      H       6.9817993419     4.8390885595     3.6878056775
   41      H       8.1914440153     3.4956017106     1.2464263849
   42      H       7.4406557081     2.6929750583     2.5542556455
   43      C       9.2322988971     3.8422478847     3.1443248398
   44      H       9.7335461373     4.7632063167     2.8204548495
   45      C      10.1455801942     2.7184215159     2.6751068038
   46      H       9.1966810366     3.9534722612     4.2350330987
   47      H      10.5587790731     2.8666719081     1.6695126970
   48      H       9.6221322635     1.7544972387     2.6880779914
   49      C      11.4877956051     2.7831415992     3.4590858223
   50      H      12.0246107816     3.7092233513     3.2174330657
   51      C      12.6087558344     1.7947729200     3.0586404225
   52      H      11.3477282956     2.8577898618     4.5443626468
   53      H      13.4976636324     2.0759882169     3.6366290759
   54      H      12.6777825516     1.9676831121     1.9774922468
   55      H      12.2995529136     0.7688582465     3.2921048447
   56      C      -5.6912666237    -4.1957835494     2.5014284154
   57      C      -4.8714615014    -5.3484165711     2.4516521293
   58      N      -5.3235600017    -3.0613132288     1.8446461594
   59      C      -3.7232556099    -5.2843695635     1.6825986776
   60      C      -4.1564131799    -3.0054055018     1.1667902585
   61      C      -3.3254678115    -4.1100687865     1.0661730515
   62      C      -2.0588385043    -3.9611278863     0.3684913143
   63      C      -0.9231910264    -4.5606254212     0.9286631732
   64      C      -1.8393939515    -3.2420519481    -0.8427662485
   65      N       0.3286602692    -4.3735244318     0.4616400972
   66      N      -2.8237575951    -2.6162859759    -1.6198808895
   67      C      -0.4899791528    -3.0970918774    -1.3254579501
   68      C       0.6023862382    -3.6608099502    -0.6360170267
   69      S      -1.9962000270    -1.7847969676    -2.7824777674
   70      N      -0.4235454771    -2.2940208527    -2.4312759714
   71      C       2.0153618835    -3.6510772258    -1.1654375588
   72      S       2.5869105869    -2.5471937345    -2.3637794622
   73      C       3.0362301787    -4.5154865851    -0.6982305561
   74      C       4.2230251499    -3.1834746014    -2.2331663109
   75      S       3.0824200796    -5.6840395275     0.5284464650
   76      C       4.2122125127    -4.2794716656    -1.3354867902
   77      C       5.3634318937    -2.6325600899    -2.9276730853
   78      C       4.8513325197    -5.7919828631     0.3007382843
   79      C       5.2965832324    -5.0116168502    -0.7137170813
   80      N       5.0028318394    -2.4639722315    -4.2120136690
   81      S       7.0258424896    -2.6911057421    -2.5013581579
   82      C       6.0492729148    -1.8507142949    -4.8394328105
   83      C       7.1851644312    -1.8213927998    -4.0467710208
   84      C      -7.1716354674    -4.2633199790     2.9596738924
   85      H      -5.1180731180    -6.2509147740     3.0033157083
   86      H      -3.1040755519    -6.1422094050     1.4392802399
   87      H      -3.9048338839    -2.1109313886     0.5992227131
   88      H      -1.1019363483    -5.1568659331     1.8219835871
   89      H       5.4581766238    -6.3109904587     1.0310699548
   90      H       6.3388478317    -4.9167674562    -0.9958129828
   91      H       6.0347116159    -1.3843792252    -5.8159345111
   92      H       8.2065819095    -1.5053778171    -4.2148836785
   93      H      -7.8086096538    -3.8372838710     2.1742198068
   94      C      -7.4900832150    -3.7049637579     4.3503177585
   95      H      -7.4489001295    -5.3228875157     3.0296377566
   96      H      -6.7772667084    -4.1122408589     5.0776251150
   97      H      -8.5079286120    -4.0489084032     4.5709868067
   98      C      -7.2775353849    -2.2047073563     4.5710600277
   99      H      -7.4757389364    -2.0123663091     5.6328722868
  100      C      -8.2256460109    -1.3829038183     3.5870203000
  101      H      -6.2095892290    -2.1572374965     4.3295675422
  102      H      -9.2732182854    -1.5727630479     3.8522650975
  103      H      -8.1555260601    -1.6778076491     2.5332371519
  104      C      -8.0225320219     0.1837260083     3.5400022825
  105      H      -8.6650842464     0.5550993482     2.7315293509
  106      C      -6.5778113970     0.6163795172     3.3006442718
  107      H      -8.4021719900     0.4820434568     4.5246210892
  108      H      -6.0841643112    -0.0156433250     2.5516291307
  109      H      -5.9074930540     0.4992273550     4.1609306717
  110      H      -6.6237296733     1.6720426698     3.0062621727
 ----------------------------------------------------------------

    9   -5663.4721965328      9.90E-06 Convergence criterion met
 Total energy in the final basis set = -5663.4721965328

                    Orbital Energies (a.u.)
 --------------------------------------------------------------

 Alpha MOs
 -- Occupied --
-88.986 -88.984 -88.936 -88.927 -88.925 -88.919 -88.910 -88.908
-14.392 -14.386 -14.386 -14.385 -14.347 -14.345 -14.344 -14.333
-14.333 -14.331 -10.269 -10.265 -10.264 -10.261 -10.261 -10.259
-10.256 -10.254 -10.240 -10.239 -10.239 -10.237 -10.236 -10.235
-10.233 -10.232 -10.231 -10.230 -10.226 -10.225 -10.225 -10.225
-10.224 -10.222 -10.222 -10.221 -10.220 -10.217 -10.216 -10.215
-10.210 -10.207 -10.206 -10.205 -10.205 -10.204 -10.200 -10.197
-10.189 -10.180 -10.178 -10.176 -10.175 -10.173 -10.171 -10.171
-10.171 -10.171 -10.170 -10.161  -8.040  -8.040  -7.998  -7.987
 -7.986  -7.978  -7.970  -7.969  -6.005  -6.005  -5.999  -5.999
 -5.998  -5.998  -5.961  -5.959  -5.954  -5.951  -5.950  -5.947
 -5.946  -5.944  -5.943  -5.942  -5.938  -5.935  -5.935  -5.933
 -5.931  -5.930  -5.927  -5.925  -1.051  -1.011  -0.974  -0.974
 -0.955  -0.953  -0.938  -0.927  -0.921  -0.916  -0.913  -0.888
 -0.850  -0.846  -0.838  -0.826  -0.813  -0.812  -0.809  -0.804
 -0.802  -0.800  -0.794  -0.792  -0.779  -0.778  -0.764  -0.764
 -0.749  -0.748  -0.743  -0.742  -0.731  -0.721  -0.711  -0.705
 -0.695  -0.690  -0.671  -0.669  -0.654  -0.652  -0.647  -0.641
 -0.635  -0.633  -0.625  -0.622  -0.615  -0.604  -0.596  -0.594
 -0.592  -0.587  -0.580  -0.578  -0.576  -0.573  -0.565  -0.546
 -0.546  -0.545  -0.541  -0.538  -0.525  -0.522  -0.519  -0.516
 -0.508  -0.505  -0.501  -0.500  -0.489  -0.481  -0.477  -0.476
 -0.474  -0.472  -0.472  -0.462  -0.462  -0.457  -0.451  -0.450
 -0.446  -0.443  -0.441  -0.435  -0.435  -0.431  -0.431  -0.430
 -0.428  -0.426  -0.425  -0.422  -0.416  -0.415  -0.415  -0.411
 -0.410  -0.410  -0.407  -0.406  -0.400  -0.399  -0.396  -0.395
 -0.393  -0.391  -0.389  -0.389  -0.385  -0.383  -0.381  -0.380
 -0.378  -0.374  -0.374  -0.370  -0.369  -0.364  -0.361  -0.354
 -0.353  -0.352  -0.349  -0.346  -0.344  -0.343  -0.343  -0.339
 -0.337  -0.334  -0.334  -0.331  -0.329  -0.326  -0.321  -0.316
 -0.313  -0.312  -0.306  -0.305  -0.303  -0.302  -0.296  -0.293
 -0.291  -0.289  -0.288  -0.287  -0.286  -0.282  -0.281  -0.277
 -0.273  -0.273  -0.265  -0.261  -0.252  -0.251  -0.250  -0.249
 -0.246  -0.240  -0.236  -0.231  -0.193  -0.193

          Ground-State Mulliken Net Atomic Charges

     Atom                 Charge (a.u.)
  ----------------------------------------
      1 C                     0.276481
      2 C                    -0.115104
      3 N                    -0.483726
      4 C                    -0.099358
      5 C                     0.075671
      6 C                     0.055748
      7 C                     0.031297
      8 C                     0.059461
      9 C                     0.184259
     10 N                    -0.490408
     11 N                    -0.521612
     12 C                     0.207222
     13 C                     0.242725
     14 S                     0.617651
     15 N                    -0.530005
     16 C                    -0.214065
     17 S                     0.344846
     18 C                    -0.107932
     19 C                    -0.199126
     20 S                     0.269901
     21 C                     0.099502
     22 C                     0.054875
     23 C                    -0.319307
     24 C                    -0.055991
     25 N                    -0.430672
     26 S                     0.281397
     27 C                     0.117655
     28 C                    -0.306370
     29 C                    -0.253686
     30 H                     0.094059
     31 H                     0.102637
     32 H                     0.115517
     33 H                     0.107890
     34 H                     0.149345
     35 H                     0.117181
     36 H                     0.109335
     37 H                     0.130980
     38 H                     0.112725
     39 C                    -0.168523
     40 H                     0.108759
     41 H                     0.111729
     42 H                     0.109817
     43 C                    -0.173179
     44 H                     0.092858
     45 C                    -0.165471
     46 H                     0.095291
     47 H                     0.092689
     48 H                     0.095725
     49 C                    -0.201635
     50 H                     0.089335
     51 C                    -0.311836
     52 H                     0.082281
     53 H                     0.101730
     54 H                     0.099016
     55 H                     0.100614
     56 C                     0.262732
     57 C                    -0.135711
     58 N                    -0.500469
     59 C                    -0.075188
     60 C                     0.084322
     61 C                     0.055857
     62 C                     0.009445
     63 C                     0.070405
     64 C                     0.224153
     65 N                    -0.550046
     66 N                    -0.555574
     67 C                     0.203676
     68 C                     0.330903
     69 S                     0.629224
     70 N                    -0.585649
     71 C                    -0.230806
     72 S                     0.369866
     73 C                    -0.098723
     74 C                    -0.191259
     75 S                     0.280653
     76 C                     0.119164
     77 C                     0.014932
     78 C                    -0.313883
     79 C                    -0.063181
     80 N                    -0.412311
     81 S                     0.285795
     82 C                     0.133719
     83 C                    -0.304622
     84 C                    -0.209458
     85 H                     0.097779
     86 H                     0.102095
     87 H                     0.127515
     88 H                     0.113001
     89 H                     0.129157
     90 H                     0.107102
     91 H                     0.124343
     92 H                     0.127192
     93 H                     0.122978
     94 C                    -0.184360
     95 H                     0.094989
     96 H                     0.085191
     97 H                     0.088189
     98 C                    -0.166227
     99 H                     0.089905
    100 C                    -0.183677
    101 H                     0.109979
    102 H                     0.079570
    103 H                     0.100450
    104 C                    -0.180057
    105 H                     0.086369
    106 C                    -0.314967
    107 H                     0.090213
    108 H                     0.112007
    109 H                     0.101673
    110 H                     0.101427
  ----------------------------------------
  Sum of atomic charges =     0.000000

                    Cartesian Multipole Moments
 -----------------------------------------------------------------
    Charge (ESU x 10^10)
                 0.0000
    Dipole Moment (Debye)
         X       1.0829      Y      -1.5414      Z       1.3731
       Tot       2.3311
    Quadrupole Moments (Debye-Ang)
        XX    -387.7543     XY       4.3031     YY    -428.1368
        XZ      -2.9083     YZ      -4.9734     ZZ    -439.4766

 Total job time:  90.40s(wall), 982.07s(cpu)
        *  Thank you very much for using Q-Chem.  Have a nice day.  *
