 Q-Chem 4.4, Q-Chem, Inc., Pleasanton, CA (2016)
 Q-Chem 4.4.2 for Intel X86 Linux

User input:
--------------------------------------------------------------
$comment
SP
$end

$rem
MEM_STATIC 5000
MEM_TOTAL 20000
JOBTYPE SP
EXCHANGE B3LYP
BASIS 6-31g(d,p)
$end

$molecule
0 1
C           3.335000    -17.752000     -6.129000
C           2.920000    -18.174000     -4.835000
N           2.631000    -16.973000     -6.881000
C           1.590000    -18.008000     -4.489000
C           1.360000    -16.703000     -6.523000
C           0.719000    -17.344000     -5.381000
C          -0.611000    -16.754000     -4.942000
C          -0.912000    -15.342000     -4.944000
C          -1.600000    -17.543000     -4.459000
N          -2.005000    -14.875000     -4.420000
N          -1.531000    -18.906000     -4.426000
C          -2.786000    -17.089000     -3.956000
C          -2.952000    -15.694000     -3.951000
S          -3.002000    -19.450000     -3.922000
N          -3.732000    -18.010000     -3.562000
C          -4.146000    -15.094000     -3.306000
S          -5.190000    -15.777000     -1.940000
C          -4.540000    -13.801000     -3.482000
C          -6.050000    -14.292000     -1.641000
S          -3.926000    -12.618000     -4.589000
C          -5.520000    -13.395000     -2.526000
C          -6.971000    -13.989000     -0.631000
C          -5.180000    -11.581000     -3.941000
C          -5.929000    -12.129000     -2.872000
N          -7.181000    -12.730000     -0.249000
S          -7.415000    -15.193000      0.564000
C          -7.693000    -12.621000      1.000000
C          -7.923000    -13.869000      1.643000
C           4.715000    -18.053000     -6.638000
H           3.630000    -18.790000     -4.290000
H           1.269000    -18.317000     -3.499000
H           0.916000    -15.868000     -7.062000
H          -0.172000    -14.573000     -5.159000
H          -5.238000    -10.589000     -4.369000
H          -6.762000    -11.645000     -2.376000
H          -7.888000    -11.683000      1.504000
H          -8.463000    -14.043000      2.565000
H           4.928000    -18.986000     -6.101000
C           5.836000    -17.014000     -6.335000
H           4.700000    -18.303000     -7.706000
H           6.834000    -17.469000     -6.311000
H           5.786000    -16.582000     -5.328000
C           5.760000    -15.862000     -7.379000
H           5.485000    -16.102000     -8.413000
C           6.995000    -14.981000     -7.431000
H           4.950000    -15.196000     -7.058000
H           7.918000    -15.503000     -7.714000
H           7.073000    -14.648000     -6.389000
C           6.792000    -13.973000     -8.478000
H           6.688000    -14.467000     -9.452000
C           7.959000    -12.922000     -8.535000
H           5.848000    -13.428000     -8.355000
H           7.890000    -12.199000     -9.357000
H           8.914000    -13.460000     -8.567000
H           8.118000    -12.281000     -7.659000
C          -7.283000    -18.629000     -5.995000
C          -7.111000    -17.500000     -5.159000
N          -8.338000    -19.469000     -5.808000
C          -8.071000    -17.269000     -4.190000
C          -9.215000    -19.260000     -4.802000
C          -9.108000    -18.159000     -3.967000
C         -10.054000    -18.028000     -2.871000
C          -9.566000    -17.613000     -1.625000
C         -11.453000    -18.297000     -2.924000
N         -10.309000    -17.595000     -0.499000
N         -12.180000    -18.660000     -4.066000
C         -12.216000    -18.231000     -1.704000
C         -11.612000    -17.894000     -0.476000
S         -13.693000    -19.032000     -3.518000
N         -13.515000    -18.619000     -1.889000
C         -12.386000    -17.683000      0.802000
S         -13.971000    -18.308000      1.082000
C         -11.873000    -16.991000      1.927000
C         -13.967000    -17.700000      2.734000
S         -10.364000    -16.295000      2.260000
C         -12.774000    -16.965000      2.943000
C         -15.018000    -17.953000      3.692000
C         -10.892000    -16.062000      3.951000
C         -12.175000    -16.447000      4.156000
N         -16.186000    -17.697000      3.077000
S         -14.938000    -17.987000      5.407000
C         -17.177000    -18.034000      3.954000
C         -16.683000    -18.289000      5.223000
C          -6.542000    -18.764000     -7.351000
H          -6.254000    -16.840000     -5.257000
H          -8.135000    -16.360000     -3.600000
H         -10.085000    -19.907000     -4.702000
H          -8.509000    -17.353000     -1.600000
H         -10.168000    -15.796000      4.710000
H         -12.675000    -16.410000      5.117000
H         -18.229000    -18.150000      3.728000
H         -17.147000    -18.499000      6.178000
H          -7.280000    -18.925000     -8.147000
C          -5.381000    -19.762000     -7.407000
H          -6.071000    -17.797000     -7.569000
H          -4.718000    -19.597000     -6.549000
H          -4.860000    -19.543000     -8.347000
C          -5.717000    -21.243000     -7.211000
H          -4.762000    -21.783000     -7.201000
C          -6.707000    -21.721000     -8.366000
H          -6.169000    -21.174000     -6.215000
H          -6.190000    -21.663000     -9.332000
H          -7.595000    -21.091000     -8.496000
C          -7.310000    -23.176000     -8.235000
H          -8.050000    -23.278000     -9.039000
C          -7.963000    -23.459000     -6.884000
H          -6.425000    -23.796000     -8.422000
H          -8.543000    -22.599000     -6.526000
H          -7.265000    -23.613000     -6.052000
H          -8.575000    -24.358000     -7.027000
$end

--------------------------------------------------------------

             Standard Nuclear Orientation (Angstroms)
    I     Atom           X                Y                Z
 ----------------------------------------------------------------
    1      C     -10.0901645770    -0.1323822314    -2.0065910656
    2      C      -9.1000693217     0.2744129492    -2.9441272337
    3      N      -9.8672798660    -0.2344837656    -0.7385773897
    4      C      -7.7752953225     0.2598523276    -2.5429616328
    5      C      -8.5970720239    -0.1503697470    -0.2958564055
    6      C      -7.4597130797    -0.0591174443    -1.2036083812
    7      C      -6.1240203160     0.2924732985    -0.5695501893
    8      C      -5.9631059713     1.2332578689     0.5136764563
    9      C      -4.9679850751    -0.2354407092    -1.0373325342
   10      N      -4.7895776056     1.6130845885     0.9209562593
   11      N      -4.9127038846    -1.1829240659    -2.0185757654
   12      C      -3.7206248237     0.0968046422    -0.5907606701
   13      C      -3.6749389484     1.0657493560     0.4254405611
   14      S      -3.3379723598    -1.6486808126    -2.1492826042
   15      N      -2.6335262835    -0.5718215750    -1.1099415110
   16      C      -2.3665168861     1.5918924826     0.8868147231
   17      S      -0.7664737619     1.6876960260    -0.0368002842
   18      C      -2.1937372861     2.3110289757     2.0318260393
   19      C       0.0220315030     2.7236552280     1.1204697702
   20      S      -3.3314970660     2.6272712483     3.2996696844
   21      C      -0.9186271451     2.9516139861     2.0858350444
   22      C       1.2771485560     3.3397508193     1.0479618010
   23      C      -2.0010174208     3.4557255744     4.0815113201
   24      C      -0.8081532779     3.5390689436     3.3237547500
   25      N       1.5440788891     4.4382806857     1.7530045868
   26      S       2.3059272510     3.1096310314    -0.3532649044
   27      C       2.5601287249     5.1750457580     1.2442355238
   28      C       3.1504376161     4.6190552071     0.0753630242
   29      C     -11.5236426643    -0.3059069335    -2.4178230570
   30      H      -9.4349037917     0.3644710199    -3.9738633269
   31      H      -7.0157349255     0.5801810817    -3.2494172171
   32      H      -8.5116204369    -0.0070782111     0.7798050477
   33      H      -6.7745394657     1.8507245041     0.8951166724
   34      H      -2.2187894277     3.8862766542     5.0499188380
   35      H       0.1208152924     3.9827601207     3.6618620328
   36      H       2.8933372186     6.1227564185     1.6475983922
   37      H       4.0630725451     4.9354518421    -0.4134627687
   38      H     -11.3979164557    -0.5830559994    -3.4721514289
   39      C     -12.4564580385     0.9381797682    -2.3174499708
   40      H     -11.9793390698    -1.1702343501    -1.9191970419
   41      H     -13.2964659309     0.8902578865    -3.0215062427
   42      H     -11.9845214385     1.8781434899    -2.6287650001
   43      C     -12.9514062369     1.0879634795    -0.8493194859
   44      H     -13.1618120151     0.1831373527    -0.2667389433
   45      C     -14.1356131649     2.0222625677    -0.6795279504
   46      H     -12.1362632152     1.5582575296    -0.2862365786
   47      H     -15.0443031582     1.7105494199    -1.2102062047
   48      H     -13.7538159030     2.9469564023    -1.1288709851
   49      C     -14.5086230763     2.0319924453     0.7397151350
   50      H     -14.8243476645     1.0270419564     1.0461796506
   51      C     -15.6474707959     3.0680582509     1.0548857524
   52      H     -13.6560731923     2.2529864885     1.3936343412
   53      H     -16.0153596913     3.0502969703     2.0880925553
   54      H     -16.4687480626     2.9129487698     0.3450000573
   55      H     -15.4361848094     4.1317837546     0.8894037752
   56      C      -0.5499982397    -3.5149145401     1.3209771815
   57      C      -0.4048005674    -2.1198261937     1.5100992105
   58      N       0.5332074644    -4.2856372210     1.0273005710
   59      C       0.8715307186    -1.5923455705     1.4284619609
   60      C       1.7544809997    -3.7284079483     0.8761963369
   61      C       1.9589329379    -2.3715704183     1.0713022627
   62      C       3.2882721786    -1.8319801638     0.8367973790
   63      C       3.3936056950    -0.6087740393     0.1618480273
   64      C       4.5244166824    -2.4336997487     1.2139595546
   65      N       4.5650704621    -0.0777614757    -0.2455153935
   66      N       4.6745895420    -3.6168676060     1.9501823020
   67      C       5.7529579528    -1.8134788166     0.7885922517
   68      C       5.7530320385    -0.6272501917     0.0275202156
   69      S       6.2938511006    -3.9413060328     1.9259189157
   70      N       6.8490319125    -2.5586415477     1.1284810261
   71      C       7.0070193336     0.1319150019    -0.3303415910
   72      S       8.5865803408    -0.5653814878    -0.3341665024
   73      C       7.0143408930     1.4853897207    -0.7495200498
   74      C       9.2920219269     0.9266810008    -0.9464456045
   75      S       5.7767419638     2.6037230145    -1.0496292541
   76      C       8.2750707364     1.9100752740    -1.0232634383
   77      C      10.6800136679     1.0724463083    -1.3187430690
   78      C       6.9995468196     3.7071406103    -1.7422849362
   79      C       8.2592654979     3.2164823155    -1.6489988746
   80      N      11.4157247730     0.5550159308    -0.3192532120
   81      S      11.3945937397     2.1600157287    -2.4391666839
   82      C      12.7197896794     0.6044473958    -0.7214350742
   83      C      12.8801435460     1.3587693229    -1.8723942688
   84      C      -1.8159923107    -4.2774686249     1.7919466924
   85      H      -1.2584402706    -1.4756476705     1.6997997308
   86      H       1.1300169162    -0.5759817491     1.7089373933
   87      H       2.6195923609    -4.3653699483     0.6990784576
   88      H       2.4485591827    -0.1226226414    -0.0748329986
   89      H       6.6843918500     4.5756639037    -2.3056299762
   90      H       9.1385467250     3.7211317089    -2.0325135592
   91      H      13.5579256501     0.0960451352    -0.2628598500
   92      H      13.7431420449     1.6903661208    -2.4351536797
   93      H      -1.5131280242    -5.0972358357     2.4556001743
   94      C      -2.7966450432    -4.7259484823     0.7037155425
   95      H      -2.4050329022    -3.5903144168     2.4126755187
   96      H      -3.0050071603    -3.8838585235     0.0325764143
   97      H      -3.7040001269    -5.0262809047     1.2417761230
   98      C      -2.2991024443    -5.7632417707    -0.3068026395
   99      H      -3.1010559740    -5.8930848074    -1.0441874250
  100      C      -1.9131385282    -7.1081099617     0.4580309400
  101      H      -1.4487785094    -5.2003547166    -0.7082853540
  102      H      -2.8168411852    -7.5426193683     0.9033758438
  103      H      -1.2320665813    -6.9715546903     1.3064634128
  104      C      -1.2104875310    -8.2391546708    -0.3933294080
  105      H      -0.9138912821    -9.0218249228     0.3165141957
  106      C       0.0062981514    -7.7589568258    -1.1810740574
  107      H      -2.0343689109    -8.5709010215    -1.0365695115
  108      H       0.6199879470    -7.0633009941    -0.5948899578
  109      H      -0.2212351813    -7.1550391541    -2.0680103732
  110      H       0.5504754365    -8.6641107681    -1.4773196028
 ----------------------------------------------------------------

   10   -5663.4551882687      4.45E-06 Convergence criterion met
 Total energy in the final basis set = -5663.4551882687

                    Orbital Energies (a.u.)
 --------------------------------------------------------------

 Alpha MOs
 -- Occupied --
-88.995 -88.986 -88.938 -88.927 -88.925 -88.924 -88.912 -88.912
-14.393 -14.386 -14.386 -14.383 -14.352 -14.347 -14.346 -14.344
-14.326 -14.325 -10.270 -10.269 -10.264 -10.264 -10.261 -10.256
-10.252 -10.249 -10.246 -10.243 -10.240 -10.239 -10.239 -10.237
-10.237 -10.235 -10.235 -10.234 -10.233 -10.230 -10.228 -10.228
-10.227 -10.227 -10.226 -10.224 -10.222 -10.218 -10.218 -10.217
-10.207 -10.207 -10.202 -10.202 -10.201 -10.200 -10.198 -10.190
-10.187 -10.184 -10.184 -10.176 -10.175 -10.173 -10.169 -10.169
-10.167 -10.167 -10.167 -10.158  -8.049  -8.040  -7.999  -7.985
 -7.985  -7.982  -7.973  -7.973  -6.014  -6.009  -6.007  -6.006
 -6.000  -5.998  -5.963  -5.960  -5.956  -5.949  -5.949  -5.947
 -5.946  -5.945  -5.943  -5.942  -5.942  -5.939  -5.937  -5.937
 -5.934  -5.934  -5.929  -5.929  -1.034  -1.012  -0.975  -0.975
 -0.968  -0.954  -0.952  -0.931  -0.917  -0.915  -0.901  -0.887
 -0.851  -0.846  -0.836  -0.835  -0.817  -0.814  -0.809  -0.803
 -0.798  -0.798  -0.797  -0.793  -0.789  -0.774  -0.771  -0.761
 -0.751  -0.748  -0.742  -0.742  -0.732  -0.722  -0.706  -0.703
 -0.691  -0.688  -0.680  -0.669  -0.659  -0.651  -0.650  -0.644
 -0.638  -0.632  -0.632  -0.621  -0.613  -0.611  -0.597  -0.597
 -0.594  -0.593  -0.582  -0.580  -0.577  -0.573  -0.570  -0.556
 -0.547  -0.542  -0.542  -0.541  -0.525  -0.523  -0.519  -0.509
 -0.506  -0.503  -0.499  -0.497  -0.492  -0.484  -0.480  -0.476
 -0.473  -0.472  -0.468  -0.464  -0.459  -0.457  -0.455  -0.450
 -0.445  -0.442  -0.438  -0.438  -0.437  -0.433  -0.432  -0.430
 -0.428  -0.425  -0.422  -0.421  -0.419  -0.416  -0.412  -0.411
 -0.409  -0.409  -0.407  -0.404  -0.401  -0.399  -0.398  -0.398
 -0.396  -0.395  -0.393  -0.390  -0.387  -0.386  -0.381  -0.381
 -0.377  -0.371  -0.369  -0.369  -0.366  -0.365  -0.363  -0.357
 -0.356  -0.354  -0.352  -0.347  -0.347  -0.345  -0.340  -0.337
 -0.337  -0.335  -0.332  -0.331  -0.329  -0.326  -0.319  -0.315
 -0.313  -0.309  -0.308  -0.306  -0.304  -0.301  -0.299  -0.296
 -0.295  -0.290  -0.290  -0.287  -0.283  -0.283  -0.280  -0.279
 -0.277  -0.270  -0.267  -0.263  -0.254  -0.253  -0.250  -0.247
 -0.244  -0.240  -0.232  -0.231  -0.194  -0.190

          Ground-State Mulliken Net Atomic Charges

     Atom                 Charge (a.u.)
  ----------------------------------------
      1 C                     0.273328
      2 C                    -0.108557
      3 N                    -0.456075
      4 C                    -0.046803
      5 C                     0.063797
      6 C                     0.012124
      7 C                    -0.014312
      8 C                     0.065336
      9 C                     0.259399
     10 N                    -0.496065
     11 N                    -0.553471
     12 C                     0.208332
     13 C                     0.262422
     14 S                     0.621651
     15 N                    -0.567540
     16 C                    -0.222493
     17 S                     0.295630
     18 C                    -0.095302
     19 C                    -0.195483
     20 S                     0.293145
     21 C                     0.134418
     22 C                     0.043906
     23 C                    -0.312498
     24 C                    -0.063344
     25 N                    -0.435432
     26 S                     0.284218
     27 C                     0.128237
     28 C                    -0.314702
     29 C                    -0.221426
     30 H                     0.093742
     31 H                     0.108738
     32 H                     0.106279
     33 H                     0.118463
     34 H                     0.123009
     35 H                     0.123431
     36 H                     0.121941
     37 H                     0.135173
     38 H                     0.081038
     39 C                    -0.184098
     40 H                     0.118091
     41 H                     0.095768
     42 H                     0.094696
     43 C                    -0.172967
     44 H                     0.091662
     45 C                    -0.153751
     46 H                     0.107001
     47 H                     0.085883
     48 H                     0.087116
     49 C                    -0.174944
     50 H                     0.097760
     51 C                    -0.327542
     52 H                     0.092059
     53 H                     0.096257
     54 H                     0.096380
     55 H                     0.100387
     56 C                     0.255781
     57 C                    -0.127885
     58 N                    -0.492296
     59 C                    -0.069736
     60 C                     0.087897
     61 C                     0.049195
     62 C                     0.012713
     63 C                     0.073080
     64 C                     0.218628
     65 N                    -0.554058
     66 N                    -0.553668
     67 C                     0.206765
     68 C                     0.333666
     69 S                     0.605581
     70 N                    -0.577421
     71 C                    -0.227823
     72 S                     0.377229
     73 C                    -0.113727
     74 C                    -0.195091
     75 S                     0.299153
     76 C                     0.117787
     77 C                     0.014802
     78 C                    -0.332500
     79 C                    -0.059921
     80 N                    -0.412543
     81 S                     0.281907
     82 C                     0.134488
     83 C                    -0.305880
     84 C                    -0.207126
     85 H                     0.104901
     86 H                     0.105489
     87 H                     0.118156
     88 H                     0.119085
     89 H                     0.125954
     90 H                     0.107018
     91 H                     0.124041
     92 H                     0.126265
     93 H                     0.123823
     94 C                    -0.190896
     95 H                     0.095144
     96 H                     0.083838
     97 H                     0.089133
     98 C                    -0.166708
     99 H                     0.087116
    100 C                    -0.183420
    101 H                     0.108892
    102 H                     0.078855
    103 H                     0.105996
    104 C                    -0.177981
    105 H                     0.087918
    106 C                    -0.317127
    107 H                     0.087800
    108 H                     0.122188
    109 H                     0.098660
    110 H                     0.092849
  ----------------------------------------
  Sum of atomic charges =     0.000000

                    Cartesian Multipole Moments
 -----------------------------------------------------------------
    Charge (ESU x 10^10)
                 0.0000
    Dipole Moment (Debye)
         X       2.7773      Y       3.6746      Z      -2.8955
       Tot       5.4405
    Quadrupole Moments (Debye-Ang)
        XX    -390.8633     XY      17.1638     YY    -443.7416
        XZ      -8.8954     YZ      -7.9367     ZZ    -433.7432

 Total job time:  98.87s(wall), 1080.00s(cpu)
        *  Thank you very much for using Q-Chem.  Have a nice day.  *
