 Q-Chem 4.4, Q-Chem, Inc., Pleasanton, CA (2016)
 Q-Chem 4.4.2 for Intel X86 Linux

User input:
--------------------------------------------------------------
$comment
SP
$end

$rem
MEM_STATIC 5000
MEM_TOTAL 20000
JOBTYPE SP
EXCHANGE B3LYP
BASIS 6-31g(d,p)
$end

$molecule
0 1
C          19.400000     19.938000     -9.932000
C          18.179000     19.285000     -9.559000
N          19.316000     20.995000    -10.757000
C          16.931000     19.600000    -10.204000
C          18.113000     21.386000    -11.233000
C          16.881000     20.705000    -11.082000
C          15.613000     21.466000    -11.575000
C          15.673000     22.138000    -12.799000
C          14.409000     21.461000    -10.853000
N          14.584000     22.802000    -13.229000
N          14.155000     20.809000     -9.707000
C          13.355000     22.202000    -11.330000
C          13.418000     22.881000    -12.528000
S          12.660000     21.231000     -9.346000
N          12.252000     22.204000    -10.529000
C          12.245000     23.732000    -12.964000
S          10.849000     24.421000    -11.999000
C          12.230000     24.402000    -14.168000
C          10.394000     25.578000    -13.189000
S          13.401000     24.204000    -15.492000
C          11.271000     25.399000    -14.224000
C           9.155000     26.297000    -13.196000
C          12.382000     25.399000    -16.301000
C          11.360000     26.018000    -15.505000
N           8.729000     26.887000    -14.304000
S           8.088000     26.137000    -11.861000
C           7.421000     27.118000    -14.104000
C           6.883000     26.746000    -12.910000
C          20.831000     19.362000     -9.530000
H          18.322000     18.425000     -8.913000
H          16.014000     19.068000     -9.970000
H          18.119000     22.294000    -11.834000
H          16.590000     22.226000    -13.380000
H          12.726000     25.840000    -17.227000
H          10.793000     26.890000    -15.813000
H           6.944000     27.621000    -14.935000
H           5.832000     26.735000    -12.654000
H          21.538000     20.130000     -9.866000
C          21.237000     17.963000    -10.065000
H          20.874000     19.328000     -8.434000
H          20.380000     17.287000     -9.957000
H          21.997000     17.607000     -9.359000
C          21.722000     18.004000    -11.549000
H          22.664000     18.551000    -11.682000
C          20.672000     18.498000    -12.562000
H          21.961000     16.987000    -11.883000
H          20.685000     19.589000    -12.449000
H          19.672000     18.160000    -12.265000
C          20.978000     18.102000    -14.053000
H          22.039000     18.273000    -14.273000
C          20.026000     18.867000    -15.047000
H          20.977000     17.015000    -14.197000
H          20.130000     19.946000    -14.879000
H          18.982000     18.542000    -14.960000
H          20.378000     18.607000    -16.053000
C           0.854000     13.709000    -14.705000
C           1.173000     12.737000    -13.773000
N           1.693000     14.681000    -15.094000
C           2.420000     12.855000    -13.135000
C           2.891000     14.771000    -14.556000
C           3.294000     13.847000    -13.557000
C           4.785000     13.877000    -13.026000
C           5.848000     13.795000    -13.942000
C           5.110000     13.950000    -11.638000
N           7.169000     13.897000    -13.628000
N           4.290000     14.041000    -10.590000
C           6.473000     14.087000    -11.313000
C           7.459000     13.998000    -12.299000
S           5.310000     13.999000     -9.293000
N           6.736000     14.204000    -10.007000
C           8.849000     14.280000    -11.941000
S           9.492000     15.389000    -10.655000
C           9.938000     13.800000    -12.555000
C          11.224000     15.033000    -10.913000
S           9.951000     12.494000    -13.750000
C          11.190000     14.093000    -11.915000
C          12.321000     15.740000    -10.276000
C          11.740000     12.655000    -13.723000
C          12.229000     13.453000    -12.664000
N          13.580000     15.470000    -10.621000
S          12.144000     16.918000     -8.978000
C          14.424000     16.273000     -9.855000
C          13.886000     17.196000     -9.011000
C          -0.469000     13.601000    -15.498000
H           0.492000     11.913000    -13.575000
H           2.835000     12.151000    -12.420000
H           3.500000     15.624000    -14.854000
H           5.712000     14.016000    -14.999000
H          12.346000     12.203000    -14.498000
H          13.281000     13.632000    -12.473000
H          15.486000     16.111000     -9.985000
H          14.305000     17.952000     -8.360000
H          -0.282000     13.573000    -16.578000
C          -1.368000     14.798000    -15.234000
H          -0.974000     12.673000    -15.201000
H          -0.862000     15.745000    -15.461000
H          -1.762000     14.885000    -14.214000
C          -2.540000     14.883000    -16.223000
H          -2.302000     14.725000    -17.282000
C          -3.458000     16.176000    -16.059000
H          -3.208000     14.029000    -16.055000
H          -3.405000     16.732000    -15.114000
H          -4.503000     15.844000    -16.099000
C          -3.063000     17.339000    -17.006000
H          -3.488000     18.262000    -16.594000
C          -3.708000     17.084000    -18.417000
H          -1.975000     17.467000    -17.059000
H          -3.218000     17.774000    -19.115000
H          -4.784000     17.245000    -18.275000
H          -3.541000     16.097000    -18.864000
$end

--------------------------------------------------------------

             Standard Nuclear Orientation (Angstroms)
    I     Atom           X                Y                Z
 ----------------------------------------------------------------
    1      C       9.3391822881     2.3017376500    -0.5446169960
    2      C       8.0395210088     2.5968856312    -1.0739063578
    3      N       9.5157554866     1.1092939166     0.0485354703
    4      C       6.9060996533     1.7534400406    -0.7969414384
    5      C       8.4778507137     0.2509573754     0.1611323818
    6      C       7.1229754690     0.5152890170    -0.1532365966
    7      C       6.1569752865    -0.7070773861    -0.1016805694
    8      C       6.2632646736    -1.5955741197     0.9719283541
    9      C       5.1630397393    -0.9171088066    -1.0706511212
   10      N       5.4363782671    -2.6565125515     1.0207700850
   11      N       4.8735542313    -0.1278681234    -2.1176627184
   12      C       4.3888435056    -2.0485799634    -0.9816611603
   13      C       4.5045217819    -2.9363275937     0.0665452513
   14      S       3.7104887619    -0.9088121201    -2.8797881595
   15      N       3.5026465193    -2.2137388995    -2.0042028109
   16      C       3.6674080915    -4.1970626860     0.0702461237
   17      S       2.7872534867    -5.0468542592    -1.2928181278
   18      C       3.7072382448    -5.1030514529     1.1077136716
   19      C       2.6019195798    -6.5371800753    -0.4523692567
   20      S       4.5024205459    -4.8611462065     2.6801601603
   21      C       3.1794772608    -6.3382167646     0.7720635614
   22      C       1.7238227106    -7.5958346335    -0.8527783159
   23      C       3.8728657748    -6.4766270766     3.0189068925
   24      C       3.2841929610    -7.1824176553     1.9159177822
   25      N       1.3722595310    -8.5376501048     0.0112974613
   26      S       0.8959648681    -7.4736093300    -2.3514531865
   27      C       0.2862767117    -9.1218684943    -0.5212015429
   28      C      -0.1548690776    -8.6690303690    -1.7269345253
   29      C      10.5076991875     3.3852208976    -0.5025063350
   30      H       7.9604491991     3.5850506627    -1.5150894485
   31      H       5.9076700288     2.0022095973    -1.1432375435
   32      H       8.7182724568    -0.7225982989     0.5854998342
   33      H       7.0459314087    -1.5201855518     1.7255485142
   34      H       4.2030693549    -6.9911125528     3.9114108367
   35      H       3.0314183531    -8.2371876760     1.9333017100
   36      H      -0.1000915376    -9.9342752759     0.0803080557
   37      H      -1.0838255563    -8.9355437039    -2.2130091111
   38      H      11.3828492277     2.8283741306    -0.1466930620
   39      C      10.2886365166     4.6702043842     0.3395690688
   40      H      10.7073965967     3.6915742937    -1.5371509800
   41      H       9.2732164205     5.0401721627     0.1521260873
   42      H      10.9685892845     5.4089968227    -0.1015907281
   43      C      10.5153257755     4.4345300996     1.8667336347
   44      H      11.5580603151     4.2041320099     2.1194852920
   45      C       9.5707802521     3.4028840983     2.5119043736
   46      H      10.3131630497     5.3637070036     2.4132924269
   47      H       9.9964500862     2.4341414442     2.2228336859
   48      H       8.5764449039     3.4622184132     2.0533962990
   49      C       9.4733750856     3.5085315012     4.0780729021
   50      H      10.4752497923     3.6402078435     4.5050042935
   51      C       8.7201766351     2.2645372672     4.6820062096
   52      H       9.0552976806     4.4700704011     4.3989470635
   53      H       9.2337270304     1.3491437577     4.3632559715
   54      H       7.6570879303     2.2477401713     4.4123948906
   55      H       8.7907295339     2.3759879813     5.7711072273
   56      C     -10.7059802050     0.9140080606     0.7976770157
   57      C     -10.6190301777     2.1295663898     0.1419128499
   58      N      -9.6439069208     0.1999685130     1.2003851773
   59      C      -9.3304869360     2.5741901897    -0.2015154408
   60      C      -8.4262713085     0.6306631368     0.9461930123
   61      C      -8.2342056201     1.8451954428     0.2375266247
   62      C      -6.7703478529     2.4233386448     0.0677830669
   63      C      -5.9680257119     2.6215388898     1.2047724445
   64      C      -6.2268523150     2.7918632980    -1.1996159154
   65      N      -4.6683331063     3.0273305731     1.1916103471
   66      N      -6.7819496080     2.6949615168    -2.4085253579
   67      C      -4.8741520039     3.1816949048    -1.2195203492
   68      C      -4.1561093002     3.3448793198    -0.0320446558
   69      S      -5.6562088215     3.3704552420    -3.4089197347
   70      N      -4.3845399885     3.4704209192    -2.4300621135
   71      C      -2.7207935254     3.6183669743    -0.1017664555
   72      S      -1.5253159082     3.1152655460    -1.3725332396
   73      C      -1.9914884716     4.2616971154     0.8188623883
   74      C      -0.1044154733     3.9364256379    -0.6655240051
   75      S      -2.6416461375     5.1777930647     2.1870338765
   76      C      -0.6345280546     4.5480220968     0.4451921704
   77      C       1.2599634158     3.7928213031    -1.1418380215
   78      C      -0.9359003712     5.6114186820     2.5469938807
   79      C      -0.0304639563     5.2897287629     1.5106027892
   80      N       2.2639621507     4.3624598679    -0.4751263554
   81      S       1.7292612802     2.9659103221    -2.6250085255
   82      C       3.4511274723     4.0803596805    -1.1496328296
   83      C       3.4248562234     3.2629006487    -2.2381086230
   84      C     -12.0850965160     0.3988385226     1.2704143082
   85      H     -11.5123498274     2.7131773644    -0.0662198811
   86      H      -9.0922691077     3.5232247929    -0.6723143238
   87      H      -7.6042969348    -0.0265047852     1.2286508876
   88      H      -6.1791318606     2.1232292825     2.1490752187
   89      H      -0.6653802547     6.0355220203     3.5057014613
   90      H       1.0307522950     5.5091991816     1.5402474060
   91      H       4.3472385812     4.5390051254    -0.7526224566
   92      H       4.1865285385     2.8599123446    -2.8925959881
   93      H     -12.0935375885     0.2270122717     2.3532612447
   94      C     -12.4347909623    -0.9240297983     0.6082668928
   95      H     -12.8389305684     1.1579144133     1.0255551371
   96      H     -11.6621229352    -1.6835034151     0.7830752024
   97      H     -12.6044981090    -0.8870855789    -0.4748026382
   98      C     -13.6360385925    -1.6143102789     1.2711748722
   99      H     -13.6415128348    -1.6456029928     2.3675688701
  100      C     -13.9840863621    -3.0551120830     0.6843001741
  101      H     -14.5330290759    -1.0061833610     1.0998455855
  102      H     -13.5848567042    -3.3222740368    -0.3027206822
  103      H     -15.0706276143    -3.0961027071     0.5373414182
  104      C     -13.3483242028    -4.2199120813     1.4870768809
  105      H     -13.3388233207    -5.1040938520     0.8386708897
  106      C     -14.2553878517    -4.5299284003     2.7333097720
  107      H     -12.3109663815    -4.0003265512     1.7674479664
  108      H     -13.6648338031    -5.1713359121     3.3990772384
  109      H     -15.1628306832    -4.9892932310     2.3217366194
  110      H     -14.5305795389    -3.6783252131     3.3664831661
 ----------------------------------------------------------------

   10   -5663.4726307680      8.73E-06 Convergence criterion met
 Total energy in the final basis set = -5663.4726307680

                    Orbital Energies (a.u.)
 --------------------------------------------------------------

 Alpha MOs
 -- Occupied --
-88.996 -88.994 -88.928 -88.928 -88.919 -88.919 -88.909 -88.908
-14.395 -14.389 -14.388 -14.387 -14.359 -14.351 -14.350 -14.341
-14.331 -14.330 -10.280 -10.266 -10.266 -10.265 -10.262 -10.257
-10.257 -10.249 -10.247 -10.246 -10.243 -10.243 -10.243 -10.239
-10.235 -10.235 -10.234 -10.232 -10.231 -10.231 -10.230 -10.230
-10.229 -10.228 -10.224 -10.223 -10.223 -10.221 -10.221 -10.219
-10.217 -10.214 -10.214 -10.207 -10.204 -10.199 -10.199 -10.195
-10.191 -10.191 -10.187 -10.179 -10.178 -10.177 -10.177 -10.176
-10.176 -10.173 -10.170 -10.170  -8.052  -8.050  -7.990  -7.989
 -7.978  -7.978  -7.968  -7.968  -6.017  -6.015  -6.011  -6.010
 -6.010  -6.008  -5.954  -5.953  -5.951  -5.949  -5.947  -5.946
 -5.943  -5.942  -5.939  -5.938  -5.935  -5.934  -5.933  -5.932
 -5.929  -5.929  -5.924  -5.924  -1.062  -1.053  -0.982  -0.967
 -0.959  -0.958  -0.949  -0.935  -0.921  -0.920  -0.909  -0.908
 -0.838  -0.834  -0.831  -0.830  -0.820  -0.815  -0.814  -0.807
 -0.805  -0.801  -0.800  -0.792  -0.783  -0.775  -0.768  -0.765
 -0.751  -0.746  -0.741  -0.738  -0.718  -0.715  -0.704  -0.703
 -0.691  -0.689  -0.680  -0.675  -0.654  -0.653  -0.651  -0.650
 -0.641  -0.637  -0.635  -0.628  -0.614  -0.611  -0.600  -0.598
 -0.592  -0.592  -0.586  -0.582  -0.579  -0.574  -0.564  -0.557
 -0.556  -0.555  -0.542  -0.539  -0.529  -0.525  -0.519  -0.518
 -0.510  -0.503  -0.501  -0.495  -0.495  -0.488  -0.483  -0.481
 -0.480  -0.474  -0.470  -0.466  -0.458  -0.452  -0.452  -0.449
 -0.446  -0.441  -0.440  -0.438  -0.435  -0.433  -0.430  -0.428
 -0.428  -0.426  -0.418  -0.417  -0.416  -0.413  -0.412  -0.411
 -0.410  -0.409  -0.407  -0.401  -0.400  -0.397  -0.397  -0.396
 -0.395  -0.394  -0.392  -0.391  -0.389  -0.387  -0.386  -0.385
 -0.377  -0.376  -0.374  -0.371  -0.366  -0.363  -0.361  -0.360
 -0.358  -0.356  -0.353  -0.351  -0.349  -0.349  -0.346  -0.343
 -0.336  -0.334  -0.332  -0.332  -0.331  -0.330  -0.320  -0.318
 -0.317  -0.314  -0.311  -0.307  -0.303  -0.302  -0.301  -0.301
 -0.299  -0.297  -0.293  -0.293  -0.292  -0.289  -0.287  -0.283
 -0.281  -0.268  -0.267  -0.265  -0.257  -0.255  -0.254  -0.250
 -0.245  -0.241  -0.235  -0.227  -0.199  -0.190

          Ground-State Mulliken Net Atomic Charges

     Atom                 Charge (a.u.)
  ----------------------------------------
      1 C                     0.266048
      2 C                    -0.129368
      3 N                    -0.469992
      4 C                    -0.087673
      5 C                     0.066206
      6 C                     0.047356
      7 C                     0.003817
      8 C                     0.079917
      9 C                     0.270203
     10 N                    -0.551297
     11 N                    -0.563134
     12 C                     0.166675
     13 C                     0.312779
     14 S                     0.617979
     15 N                    -0.529982
     16 C                    -0.226561
     17 S                     0.302284
     18 C                    -0.103883
     19 C                    -0.224591
     20 S                     0.299107
     21 C                     0.151644
     22 C                     0.077501
     23 C                    -0.306390
     24 C                    -0.080975
     25 N                    -0.424461
     26 S                     0.284233
     27 C                     0.128242
     28 C                    -0.313210
     29 C                    -0.230785
     30 H                     0.082423
     31 H                     0.116013
     32 H                     0.097144
     33 H                     0.130430
     34 H                     0.115633
     35 H                     0.122646
     36 H                     0.106468
     37 H                     0.133537
     38 H                     0.121467
     39 C                    -0.180283
     40 H                     0.104144
     41 H                     0.095779
     42 H                     0.097959
     43 C                    -0.181535
     44 H                     0.094268
     45 C                    -0.174209
     46 H                     0.084980
     47 H                     0.117477
     48 H                     0.090345
     49 C                    -0.191734
     50 H                     0.090530
     51 C                    -0.317037
     52 H                     0.089386
     53 H                     0.110040
     54 H                     0.107726
     55 H                     0.098969
     56 C                     0.275789
     57 C                    -0.125855
     58 N                    -0.469477
     59 C                    -0.047367
     60 C                     0.080034
     61 C                     0.020805
     62 C                    -0.016028
     63 C                     0.046921
     64 C                     0.260662
     65 N                    -0.466022
     66 N                    -0.555057
     67 C                     0.189469
     68 C                     0.243272
     69 S                     0.604153
     70 N                    -0.523270
     71 C                    -0.180942
     72 S                     0.285477
     73 C                    -0.109398
     74 C                    -0.220430
     75 S                     0.266346
     76 C                     0.134337
     77 C                     0.069525
     78 C                    -0.300559
     79 C                    -0.061561
     80 N                    -0.438495
     81 S                     0.257148
     82 C                     0.117403
     83 C                    -0.304492
     84 C                    -0.213923
     85 H                     0.097508
     86 H                     0.104005
     87 H                     0.109722
     88 H                     0.120548
     89 H                     0.128779
     90 H                     0.128628
     91 H                     0.111291
     92 H                     0.154145
     93 H                     0.116941
     94 C                    -0.167406
     95 H                     0.091091
     96 H                     0.118754
     97 H                     0.095552
     98 C                    -0.186584
     99 H                     0.092570
    100 C                    -0.181857
    101 H                     0.080843
    102 H                     0.085198
    103 H                     0.088399
    104 C                    -0.183568
    105 H                     0.091864
    106 C                    -0.312640
    107 H                     0.100779
    108 H                     0.096020
    109 H                     0.104492
    110 H                     0.102207
  ----------------------------------------
  Sum of atomic charges =     0.000000

                    Cartesian Multipole Moments
 -----------------------------------------------------------------
    Charge (ESU x 10^10)
                 0.0000
    Dipole Moment (Debye)
         X      -2.1206      Y       1.9538      Z      -3.2405
       Tot       4.3377
    Quadrupole Moments (Debye-Ang)
        XX    -427.3232     XY       8.9196     YY    -427.2867
        XZ       3.8245     YZ       3.3275     ZZ    -434.3273

 Total job time:  95.20s(wall), 1036.23s(cpu)
        *  Thank you very much for using Q-Chem.  Have a nice day.  *
