 Q-Chem 4.4, Q-Chem, Inc., Pleasanton, CA (2016)
 Q-Chem 4.4.2 for Intel X86 Linux

User input:
--------------------------------------------------------------
$comment
SP
$end

$rem
MEM_STATIC 5000
MEM_TOTAL 20000
JOBTYPE SP
EXCHANGE B3LYP
BASIS 6-31g(d,p)
$end

$molecule
0 1
C          20.321000      7.814000     -2.326000
C          19.038000      7.587000     -1.938000
N          21.173000      8.546000     -1.572000
C          18.481000      8.132000     -0.770000
C          20.764000      8.965000     -0.375000
C          19.415000      8.650000      0.106000
C          18.902000      8.983000      1.515000
C          17.611000      9.555000      1.670000
C          19.617000      8.744000      2.687000
N          17.185000     10.109000      2.862000
N          20.786000      8.137000      2.729000
C          19.088000      9.211000      3.874000
C          17.858000      9.894000      3.987000
S          21.189000      8.190000      4.342000
N          19.887000      8.951000      4.920000
C          17.151000     10.379000      5.267000
S          17.977000     10.529000      6.797000
C          15.830000     10.779000      5.345000
C          16.510000     11.123000      7.575000
S          14.618000     11.059000      4.119000
C          15.463000     11.160000      6.640000
C          16.416000     11.672000      8.875000
C          13.653000     11.838000      5.403000
C          14.226000     11.801000      6.653000
N          17.587000     11.821000      9.518000
S          14.989000     12.278000      9.840000
C          17.410000     12.359000     10.782000
C          16.106000     12.659000     11.166000
C          20.869000      7.128000     -3.562000
H          18.385000      6.992000     -2.569000
H          17.457000      7.870000     -0.519000
H          21.432000      9.603000      0.203000
H          16.953000      9.825000      0.845000
H          12.748000     12.355000      5.112000
H          13.780000     12.238000      7.539000
H          18.295000     12.433000     11.400000
H          15.816000     13.115000     12.104000
H          21.809000      6.589000     -3.394000
C          21.181000      8.127000     -4.650000
H          20.263000      6.347000     -4.037000
H          21.633000      7.593000     -5.495000
H          21.855000      8.900000     -4.260000
C          19.855000      8.883000     -5.100000
H          19.243000      8.163000     -5.658000
C          20.111000     10.143000     -5.933000
H          19.277000      9.166000     -4.212000
H          19.229000     10.315000     -6.562000
H          20.905000      9.968000     -6.669000
C          20.508000     11.442000     -5.136000
H          21.501000     11.302000     -4.692000
C          19.442000     11.854000     -4.067000
H          20.539000     12.320000     -5.794000
H          19.639000     11.174000     -3.229000
H          18.422000     11.664000     -4.421000
H          19.599000     12.867000     -3.676000
C           5.742000     22.075000     12.662000
C           5.690000     20.741000     12.338000
N           6.912000     22.808000     12.530000
C           6.897000     20.134000     11.918000
C           8.022000     22.218000     12.118000
C           8.062000     20.889000     11.704000
C           9.310000     20.367000     11.084000
C          10.574000     20.769000     11.556000
C           9.383000     19.490000      9.942000
N          11.755000     20.338000     11.073000
N           8.319000     18.872000      9.351000
C          10.628000     19.011000      9.519000
C          11.842000     19.421000     10.077000
S           8.991000     17.787000      8.300000
N          10.584000     18.100000      8.515000
C          13.161000     18.856000      9.760000
S          13.485000     17.283000      9.059000
C          14.357000     19.461000      9.960000
C          15.295000     17.586000      8.902000
S          14.666000     21.011000     10.616000
C          15.548000     18.834000      9.479000
C          16.314000     16.599000      8.505000
C          16.453000     20.823000     10.360000
C          16.715000     19.611000      9.767000
N          17.577000     16.912000      8.553000
S          15.883000     15.039000      7.776000
C          18.351000     15.869000      8.125000
C          17.632000     14.820000      7.631000
C           4.571000     22.751000     13.247000
H           4.781000     20.152000     12.415000
H           6.854000     19.095000     11.604000
H           8.875000     22.894000     12.069000
H          10.605000     21.327000     12.491000
H          17.135000     21.576000     10.732000
H          17.730000     19.263000      9.616000
H          19.419000     16.035000      8.084000
H          18.044000     13.887000      7.269000
H           3.964000     22.040000     13.821000
C           3.637000     23.430000     12.163000
H           4.936000     23.482000     13.980000
H           3.376000     22.790000     11.311000
H           4.258000     24.209000     11.703000
C           2.391000     24.267000     12.748000
H           2.720000     25.081000     13.406000
C           1.424000     23.337000     13.458000
H           1.891000     24.752000     11.901000
H           2.110000     22.693000     14.022000
H           0.958000     22.610000     12.781000
C           0.471000     24.137000     14.349000
H           1.013000     24.502000     15.230000
C          -0.780000     23.387000     14.878000
H          -0.006000     25.019000     13.905000
H          -0.528000     22.507000     15.483000
H          -1.503000     23.061000     14.121000
H          -1.215000     24.055000     15.632000
$end

--------------------------------------------------------------

             Standard Nuclear Orientation (Angstroms)
    I     Atom           X                Y                Z
 ----------------------------------------------------------------
    1      C     -12.7085260784    -2.5971377845    -0.0464813718
    2      C     -11.8521761225    -3.0614660444    -0.9947566588
    3      N     -12.3825768685    -1.5609679474     0.7599634071
    4      C     -10.5566258736    -2.5512545312    -1.1756758791
    5      C     -11.2325661862    -0.9235598027     0.5435441663
    6      C     -10.3356538965    -1.3467198667    -0.5366738232
    7      C      -9.0551771016    -0.5989423882    -0.9373570148
    8      C      -7.8631453865    -1.3344600546    -1.1739244528
    9      C      -8.9742121941     0.7815349649    -1.1095689817
   10      N      -6.6279722580    -0.7257071662    -1.2880439671
   11      N     -10.0038957651     1.5992292738    -1.0206771325
   12      C      -7.7298878790     1.3320800208    -1.3450602556
   13      C      -6.5339365032     0.5896689753    -1.4484243994
   14      S      -9.3229390846     3.1005301928    -1.2428944811
   15      N      -7.7813232869     2.6682652193    -1.4549716483
   16      C      -5.1206330866     1.1011213109    -1.7867496294
   17      S      -4.6843878664     2.7882140120    -1.6914379007
   18      C      -4.0521690662     0.3052178099    -2.1555954702
   19      C      -3.0288551640     2.4279101724    -2.1809290799
   20      S      -3.8403062345    -1.4281513162    -2.1866697833
   21      C      -2.8950518118     1.0489965928    -2.4100513245
   22      C      -1.9365865819     3.3261471652    -2.1620439181
   23      C      -2.1002965075    -1.1037323993    -2.4187053759
   24      C      -1.7744232940     0.2286919617    -2.5219040718
   25      N      -2.1996289019     4.5340354004    -1.6341180243
   26      S      -0.1946932164     3.1351307627    -2.6759604843
   27      C      -1.0836673016     5.3541748677    -1.6557966074
   28      C       0.0864207934     4.8180609476    -2.1862188113
   29      C     -14.1174585264    -3.1510433559     0.0353353449
   30      H     -12.1509498279    -3.8934637110    -1.6249226336
   31      H      -9.9521499671    -2.9590798827    -1.9809760475
   32      H     -10.9474142376    -0.1282096576     1.2316273829
   33      H      -7.7684652558    -2.4123482559    -1.0486978648
   34      H      -1.4191578748    -1.9434064911    -2.3740670218
   35      H      -0.7639624503     0.5987480274    -2.6519363440
   36      H      -1.2315833883     6.3741535931    -1.3265714096
   37      H       1.0427150134     5.3228600675    -2.2368074796
   38      H     -14.9004208128    -2.3834262817     0.0264423368
   39      C     -14.3326165417    -3.9131360677     1.3206410389
   40      H     -14.4652055161    -3.8126897082    -0.7672343628
   41      H     -15.3798178792    -4.2372499908     1.3631207231
   42      H     -14.0774591376    -3.2750337079     2.1759918894
   43      C     -13.3485644680    -5.1616965702     1.3917057142
   44      H     -13.7035430951    -5.8982465840     0.6597274006
   45      C     -13.2386248047    -5.7869642777     2.7859720318
   46      H     -12.3461846671    -4.8551835192     1.0692131032
   47      H     -12.9570195512    -6.8396837985     2.6609556658
   48      H     -14.2246964168    -5.8531324354     3.2614103039
   49      C     -12.2886861385    -5.0577249028     3.8087356724
   50      H     -12.7211021284    -4.0842847581     4.0699170202
   51      C     -10.8181443555    -4.9245157620     3.2904469600
   52      H     -12.1663011817    -5.6447982773     4.7280700921
   53      H     -10.8641426007    -4.0773690486     2.5949761788
   54      H     -10.5095820920    -5.8094971045     2.7217525315
   55      H     -10.1131383907    -4.6297656142     4.0777130776
   56      C      12.5717204206    -1.4002608898    -0.2468027272
   57      C      11.6558611775    -1.5440628500    -1.2605871436
   58      N      12.2163371346    -0.8593737391     0.9798825667
   59      C      10.3475301409    -1.0633834792    -1.0178625237
   60      C      10.9806002177    -0.4340559603     1.1848290461
   61      C       9.9624206315    -0.5918799625     0.2480052022
   62      C       8.5676088977    -0.2509449052     0.6387116314
   63      C       8.2995361867     0.8541232100     1.4687992667
   64      C       7.3866732807    -1.0041828634     0.2971773770
   65      N       7.0732713282     1.2510130549     1.8593936190
   66      N       7.3441731326    -2.0559451657    -0.5718973014
   67      C       6.1274806122    -0.5159478510     0.6638589777
   68      C       5.9417175692     0.6245424059     1.4500104044
   69      S       5.7333875270    -2.3468799948    -0.8045701575
   70      N       5.0737952513    -1.2300628482     0.1951800567
   71      C       4.6471745882     1.2501940516     1.7536442112
   72      S       3.1587405730     1.0693561511     0.8466889553
   73      C       4.3862776308     2.0796648052     2.7930440604
   74      C       2.1568383717     2.0307950952     2.0568067743
   75      S       5.4555810157     2.6181047353     4.0157417797
   76      C       3.0422940890     2.5050027363     3.0291941898
   77      C       0.7556831428     2.4536822070     1.8892671816
   78      C       4.1301185901     3.5400361359     4.8448623083
   79      C       2.9465647052     3.3670646527     4.1677226864
   80      N       0.2022498317     3.2367462590     2.7701555177
   81      S      -0.2863632685     1.7841267038     0.6177968890
   82      C      -1.1008419487     3.4903126909     2.4418799072
   83      C      -1.5453440145     2.7725067276     1.3701660869
   84      C      13.9894459409    -1.7373093874    -0.4633544750
   85      H      11.9065872704    -1.9821639320    -2.2220104991
   86      H       9.6015769195    -1.2250236413    -1.7907740643
   87      H      10.8291527375    -0.0178349116     2.1802232893
   88      H       9.1196771103     1.5437115445     1.6647247485
   89      H       4.3589848112     4.1711421626     5.6932975951
   90      H       2.0517845244     3.9118517134     4.4446802400
   91      H      -1.6707903046     4.0992542223     3.1305090403
   92      H      -2.5307113891     2.8427429009     0.9281310011
   93      H      14.2633460648    -1.5885623906    -1.5151619921
   94      C      14.3422494345    -3.2306752071    -0.0711284897
   95      H      14.5963010193    -1.0176793192     0.1012112683
   96      H      13.6592934870    -3.9886463312    -0.4744595557
   97      H      14.1621741643    -3.2890390586     1.0097269853
   98      C      15.8977778760    -3.6309870312    -0.1951918251
   99      H      16.5325483057    -3.0008417423     0.4402485077
  100      C      16.3375975972    -3.5749407929    -1.6469171545
  101      H      16.0089264067    -4.6513547074     0.1909814643
  102      H      15.8663133328    -2.6438752175    -1.9852011127
  103      H      15.8248361730    -4.3135755123    -2.2758117984
  104      C      17.8648952199    -3.5519549032    -1.7413820715
  105      H      18.2365071539    -2.5690324088    -1.4268698451
  106      C      18.4790359126    -3.8312534101    -3.1385812533
  107      H      18.4138057592    -4.2857015850    -1.1389685700
  108      H      18.1558300884    -3.1108335073    -3.9004619256
  109      H      18.3074576702    -4.8331528852    -3.5494490527
  110      H      19.5427486800    -3.5818218232    -3.0372696953
 ----------------------------------------------------------------

   10   -5663.5352566880      4.36E-06 Convergence criterion met
 Total energy in the final basis set = -5663.5352566880

                    Orbital Energies (a.u.)
 --------------------------------------------------------------

 Alpha MOs
 -- Occupied --
-88.991 -88.988 -88.931 -88.931 -88.922 -88.921 -88.918 -88.899
-14.392 -14.388 -14.385 -14.385 -14.354 -14.347 -14.343 -14.338
-14.337 -14.327 -10.273 -10.270 -10.268 -10.263 -10.260 -10.258
-10.255 -10.253 -10.249 -10.247 -10.247 -10.243 -10.240 -10.238
-10.238 -10.234 -10.233 -10.233 -10.232 -10.231 -10.228 -10.227
-10.227 -10.226 -10.225 -10.224 -10.224 -10.224 -10.223 -10.214
-10.214 -10.212 -10.211 -10.211 -10.206 -10.199 -10.197 -10.195
-10.187 -10.187 -10.184 -10.181 -10.180 -10.178 -10.177 -10.175
-10.175 -10.175 -10.171 -10.169  -8.047  -8.043  -7.990  -7.989
 -7.982  -7.980  -7.977  -7.959  -6.012  -6.008  -6.007  -6.005
 -6.003  -6.001  -5.954  -5.954  -5.951  -5.950  -5.947  -5.946
 -5.946  -5.944  -5.943  -5.941  -5.940  -5.939  -5.938  -5.936
 -5.933  -5.924  -5.920  -5.915  -1.050  -1.033  -0.969  -0.961
 -0.956  -0.954  -0.947  -0.937  -0.919  -0.915  -0.907  -0.900
 -0.851  -0.837  -0.835  -0.829  -0.813  -0.808  -0.807  -0.803
 -0.801  -0.798  -0.795  -0.794  -0.789  -0.782  -0.769  -0.767
 -0.747  -0.745  -0.741  -0.738  -0.730  -0.718  -0.711  -0.708
 -0.697  -0.690  -0.678  -0.670  -0.655  -0.654  -0.650  -0.644
 -0.638  -0.635  -0.631  -0.625  -0.621  -0.611  -0.605  -0.597
 -0.597  -0.589  -0.587  -0.586  -0.582  -0.576  -0.569  -0.551
 -0.546  -0.544  -0.541  -0.535  -0.528  -0.523  -0.518  -0.516
 -0.506  -0.505  -0.503  -0.499  -0.489  -0.487  -0.482  -0.481
 -0.475  -0.473  -0.472  -0.469  -0.460  -0.458  -0.452  -0.448
 -0.446  -0.441  -0.439  -0.438  -0.437  -0.436  -0.432  -0.431
 -0.428  -0.427  -0.423  -0.422  -0.422  -0.421  -0.416  -0.413
 -0.412  -0.408  -0.406  -0.404  -0.402  -0.400  -0.400  -0.399
 -0.398  -0.395  -0.393  -0.392  -0.386  -0.386  -0.383  -0.381
 -0.379  -0.374  -0.372  -0.369  -0.369  -0.368  -0.361  -0.358
 -0.357  -0.355  -0.351  -0.348  -0.347  -0.343  -0.342  -0.341
 -0.341  -0.339  -0.334  -0.333  -0.332  -0.330  -0.328  -0.320
 -0.314  -0.312  -0.312  -0.309  -0.303  -0.302  -0.301  -0.300
 -0.296  -0.294  -0.293  -0.292  -0.285  -0.284  -0.282  -0.279
 -0.276  -0.272  -0.271  -0.262  -0.258  -0.255  -0.252  -0.249
 -0.248  -0.239  -0.235  -0.233  -0.197  -0.193

          Ground-State Mulliken Net Atomic Charges

     Atom                 Charge (a.u.)
  ----------------------------------------
      1 C                     0.295080
      2 C                    -0.122612
      3 N                    -0.480024
      4 C                    -0.063226
      5 C                     0.104599
      6 C                     0.012109
      7 C                     0.002363
      8 C                     0.046716
      9 C                     0.279940
     10 N                    -0.530598
     11 N                    -0.568401
     12 C                     0.182314
     13 C                     0.328902
     14 S                     0.597007
     15 N                    -0.544141
     16 C                    -0.224728
     17 S                     0.361018
     18 C                    -0.108285
     19 C                    -0.226943
     20 S                     0.289888
     21 C                     0.124642
     22 C                     0.055768
     23 C                    -0.311880
     24 C                    -0.068254
     25 N                    -0.440282
     26 S                     0.265570
     27 C                     0.127821
     28 C                    -0.311465
     29 C                    -0.220069
     30 H                     0.087908
     31 H                     0.109932
     32 H                     0.115704
     33 H                     0.120382
     34 H                     0.131704
     35 H                     0.115959
     36 H                     0.115581
     37 H                     0.142080
     38 H                     0.111607
     39 C                    -0.184276
     40 H                     0.096409
     41 H                     0.088719
     42 H                     0.117621
     43 C                    -0.181223
     44 H                     0.081104
     45 C                    -0.180041
     46 H                     0.098514
     47 H                     0.084859
     48 H                     0.087436
     49 C                    -0.179545
     50 H                     0.100406
     51 C                    -0.324083
     52 H                     0.092663
     53 H                     0.110823
     54 H                     0.102596
     55 H                     0.098782
     56 C                     0.268949
     57 C                    -0.105613
     58 N                    -0.484926
     59 C                    -0.081607
     60 C                     0.079686
     61 C                     0.045913
     62 C                     0.011736
     63 C                     0.064305
     64 C                     0.250537
     65 N                    -0.525830
     66 N                    -0.552044
     67 C                     0.164400
     68 C                     0.303704
     69 S                     0.597231
     70 N                    -0.546473
     71 C                    -0.184016
     72 S                     0.296960
     73 C                    -0.122565
     74 C                    -0.259361
     75 S                     0.261654
     76 C                     0.167805
     77 C                     0.076757
     78 C                    -0.312893
     79 C                    -0.046379
     80 N                    -0.435047
     81 S                     0.267527
     82 C                     0.128674
     83 C                    -0.312044
     84 C                    -0.230365
     85 H                     0.095352
     86 H                     0.109897
     87 H                     0.105623
     88 H                     0.117808
     89 H                     0.133489
     90 H                     0.127231
     91 H                     0.115192
     92 H                     0.147112
     93 H                     0.102520
     94 C                    -0.202857
     95 H                     0.119567
     96 H                     0.097579
     97 H                     0.110676
     98 C                    -0.180036
     99 H                     0.097228
    100 C                    -0.161637
    101 H                     0.093485
    102 H                     0.092194
    103 H                     0.088869
    104 C                    -0.177576
    105 H                     0.096853
    106 C                    -0.326517
    107 H                     0.098647
    108 H                     0.096675
    109 H                     0.104316
    110 H                     0.097189
  ----------------------------------------
  Sum of atomic charges =     0.000000

                    Cartesian Multipole Moments
 -----------------------------------------------------------------
    Charge (ESU x 10^10)
                 0.0000
    Dipole Moment (Debye)
         X      -1.0523      Y      -0.9802      Z      -3.5985
       Tot       3.8752
    Quadrupole Moments (Debye-Ang)
        XX    -439.5209     XY       4.8680     YY    -426.2715
        XZ      -9.3802     YZ      13.9255     ZZ    -445.5950

 Total job time:  96.77s(wall), 1025.16s(cpu)
        *  Thank you very much for using Q-Chem.  Have a nice day.  *
