 Q-Chem 4.4, Q-Chem, Inc., Pleasanton, CA (2016)
 Q-Chem 4.4.2 for Intel X86 Linux

User input:
--------------------------------------------------------------
$comment
SP
$end

$rem
MEM_STATIC 5000
MEM_TOTAL 20000
JOBTYPE SP
EXCHANGE B3LYP
BASIS 6-31g(d,p)
$end

$molecule
0 1
C           1.117000     19.255000     10.528000
C           2.376000     19.909000     10.614000
N           0.863000     18.314000      9.594000
C           3.320000     19.635000      9.628000
C           1.751000     18.055000      8.620000
C           3.014000     18.690000      8.585000
C           3.993000     18.294000      7.406000
C           5.389000     18.233000      7.631000
C           3.587000     18.029000      6.117000
N           6.322000     17.765000      6.749000
N           2.381000     18.142000      5.614000
C           4.516000     17.750000      5.121000
C           5.889000     17.563000      5.455000
S           2.459000     17.727000      4.020000
N           4.042000     17.542000      3.867000
C           6.973000     17.118000      4.565000
S           8.517000     16.296000      5.131000
C           7.284000     17.660000      3.271000
C           9.201000     16.336000      3.513000
S           6.482000     19.007000      2.502000
C           8.459000     17.164000      2.696000
C          10.481000     15.859000      3.238000
C           7.677000     18.802000      1.184000
C           8.674000     17.878000      1.447000
N          10.866000     15.700000      1.967000
S          11.499000     15.078000      4.419000
C          12.206000     15.326000      1.932000
C          12.725000     14.932000      3.159000
C          -0.060000     19.538000     11.499000
H           2.501000     20.613000     11.432000
H           4.293000     20.118000      9.598000
H           1.443000     17.386000      7.817000
H           5.735000     18.389000      8.652000
H           7.626000     19.502000      0.361000
H           9.516000     17.681000      0.793000
H          12.669000     15.291000      0.955000
H          13.657000     14.405000      3.314000
H          -0.191000     20.624000     11.412000
C           0.118000     19.110000     12.963000
H          -0.978000     19.126000     11.061000
H          -0.749000     19.449000     13.543000
H           0.992000     19.667000     13.323000
C           0.276000     17.569000     13.188000
H          -0.648000     17.066000     12.878000
C           0.491000     17.153000     14.653000
H           1.118000     17.283000     12.546000
H          -0.487000     17.267000     15.136000
H           1.096000     17.930000     15.136000
C           1.062000     15.709000     14.729000
H           0.346000     15.095000     14.169000
C           1.305000     15.356000     16.172000
H           1.963000     15.625000     14.108000
H           1.749000     16.190000     16.730000
H           1.820000     14.407000     16.364000
H           0.339000     15.197000     16.668000
C           5.742000     22.075000     12.662000
C           5.690000     20.741000     12.338000
N           6.912000     22.808000     12.530000
C           6.897000     20.134000     11.918000
C           8.022000     22.218000     12.118000
C           8.062000     20.889000     11.704000
C           9.310000     20.367000     11.084000
C          10.574000     20.769000     11.556000
C           9.383000     19.490000      9.942000
N          11.755000     20.338000     11.073000
N           8.319000     18.872000      9.351000
C          10.628000     19.011000      9.519000
C          11.842000     19.421000     10.077000
S           8.991000     17.787000      8.300000
N          10.584000     18.100000      8.515000
C          13.161000     18.856000      9.760000
S          13.485000     17.283000      9.059000
C          14.357000     19.461000      9.960000
C          15.295000     17.586000      8.902000
S          14.666000     21.011000     10.616000
C          15.548000     18.834000      9.479000
C          16.314000     16.599000      8.505000
C          16.453000     20.823000     10.360000
C          16.715000     19.611000      9.767000
N          17.577000     16.912000      8.553000
S          15.883000     15.039000      7.776000
C          18.351000     15.869000      8.125000
C          17.632000     14.820000      7.631000
C           4.571000     22.751000     13.247000
H           4.781000     20.152000     12.415000
H           6.854000     19.095000     11.604000
H           8.875000     22.894000     12.069000
H          10.605000     21.327000     12.491000
H          17.135000     21.576000     10.732000
H          17.730000     19.263000      9.616000
H          19.419000     16.035000      8.084000
H          18.044000     13.887000      7.269000
H           3.964000     22.040000     13.821000
C           3.637000     23.430000     12.163000
H           4.936000     23.482000     13.980000
H           3.376000     22.790000     11.311000
H           4.258000     24.209000     11.703000
C           2.391000     24.267000     12.748000
H           2.720000     25.081000     13.406000
C           1.424000     23.337000     13.458000
H           1.891000     24.752000     11.901000
H           2.110000     22.693000     14.022000
H           0.958000     22.610000     12.781000
C           0.471000     24.137000     14.349000
H           1.013000     24.502000     15.230000
C          -0.780000     23.387000     14.878000
H          -0.006000     25.019000     13.905000
H          -0.528000     22.507000     15.483000
H          -1.503000     23.061000     14.121000
H          -1.215000     24.055000     15.632000
$end

--------------------------------------------------------------

             Standard Nuclear Orientation (Angstroms)
    I     Atom           X                Y                Z
 ----------------------------------------------------------------
    1      C       6.9253853432    -1.0646981970    -0.6074910319
    2      C       5.9705788548    -0.2406506334     0.0478586325
    3      N       6.5944313298    -2.2641697809    -1.1310274303
    4      C       4.6910712030    -0.7545727567     0.2406077444
    5      C       5.3731735713    -2.7872349477    -0.9329534071
    6      C       4.3653005109    -2.0696618845    -0.2481908257
    7      C       2.9548665856    -2.7705505652    -0.0909356198
    8      C       1.7686665699    -1.9998966370    -0.1376693943
    9      C       2.7793682337    -4.1178530926     0.1339159490
   10      N       0.4945065055    -2.4930958436    -0.1642715168
   11      N       3.7022951292    -5.0246553347     0.3486940653
   12      C       1.5085073444    -4.6482695498     0.3248844856
   13      C       0.3555430561    -3.8359992324     0.1186218342
   14      S       2.9435813873    -6.4693075023     0.5863462743
   15      N       1.4200544592    -5.9769831195     0.5840221649
   16      C      -1.0523833723    -4.2636200237     0.1266611794
   17      S      -2.4146921049    -3.3859626599    -0.7415602606
   18      C      -1.6945648262    -5.0476316771     1.1454102690
   19      C      -3.6260456967    -4.4441266720    -0.0342474593
   20      S      -0.9585389630    -5.6088625351     2.6260384643
   21      C      -3.0781137163    -5.1867105085     0.9914117388
   22      C      -4.9877588657    -4.2788206287    -0.2791253010
   23      C      -2.5726031527    -6.2728013362     3.0274809381
   24      C      -3.5785724183    -5.9188099890     2.1444917180
   25      N      -5.8448361787    -5.2367005896     0.0907820657
   26      S      -5.6376016126    -3.0953162824    -1.3827864205
   27      C      -7.1478279605    -4.8100148831    -0.1476560277
   28      C      -7.2446942689    -3.6780392754    -0.9472647707
   29      C       8.4110394994    -0.6607520282    -0.8022170467
   30      H       6.3212692805     0.7293611097     0.3891187146
   31      H       3.9120966154    -0.2063148196     0.7636085343
   32      H       5.2006502745    -3.8120569677    -1.2603820854
   33      H       1.8736380657    -0.9395254387    -0.3636935234
   34      H      -2.6775695058    -6.7643617050     3.9852285398
   35      H      -4.6249737834    -6.1717501893     2.2731557695
   36      H      -7.9375090445    -5.4464677981     0.2284483095
   37      H      -8.1436637733    -3.3156461682    -1.4277885122
   38      H       8.7394897388    -0.4417696761     0.2216448433
   39      C       8.7020784045     0.5136154260    -1.7479027441
   40      H       8.9815176911    -1.5574309362    -1.0757742960
   41      H       9.7751108171     0.7389642211    -1.7191040963
   42      H       8.1745110131     1.3721196632    -1.3138887787
   43      C       8.2990646064     0.2765759728    -3.2417776305
   44      H       8.9024082247    -0.5439048826    -3.6488066764
   45      C       8.5598567476     1.4715536770    -4.1742591292
   46      H       7.2372297536     0.0051816320    -3.1996367097
   47      H       9.6462078897     1.4950687608    -4.3227759190
   48      H       8.3696280406     2.3887913491    -3.6037058083
   49      C       7.7511079093     1.3175685957    -5.4930339057
   50      H       8.0489600998     0.3399643759    -5.8915637815
   51      C       7.9925737616     2.5262563583    -6.3571375655
   52      H       6.6892166534     1.1541329890    -5.2690388991
   53      H       7.9880521858     3.4558350853    -5.7741118836
   54      H       7.3883566023     2.6050128203    -7.2689539090
   55      H       9.0118853876     2.4782371183    -6.7610570644
   56      C       4.1906454314     3.6305458721     1.4836478315
   57      C       3.8178463766     2.9064407826     0.3773347275
   58      N       3.2521731019     4.2577465240     2.2895647187
   59      C       2.4385700158     2.8762621793     0.0636725327
   60      C       1.9670061265     4.1980586341     1.9817868750
   61      C       1.4788811084     3.4391894626     0.9210849625
   62      C       0.0069868241     3.2851891325     0.7655243181
   63      C      -0.8644801029     4.3561536923     1.0405957758
   64      C      -0.6817200048     2.0714066641     0.4035339551
   65      N      -2.2045059674     4.3181527135     0.9113765504
   66      N      -0.0830908440     0.9166922772    -0.0106867742
   67      C      -2.0676780649     2.0961426052     0.2114314070
   68      C      -2.8602111450     3.2207342875     0.4572867813
   69      S      -1.3235387815    -0.0294799350    -0.5579134723
   70      N      -2.6071088087     0.9375597697    -0.2430719329
   71      C      -4.2924183637     3.3391181412     0.1502969676
   72      S      -5.1980371068     2.3818851733    -1.0048072430
   73      C      -5.1588823601     4.2165232193     0.7122947185
   74      C      -6.8181845369     3.1251673499    -0.5408978655
   75      S      -4.8450275242     5.4006454701     1.9071447664
   76      C      -6.5510257703     4.1215722708     0.4026303148
   77      C      -8.1046773950     2.9115157914    -1.2260461250
   78      C      -6.5913464207     5.8928376060     1.9557885030
   79      C      -7.3200100278     5.1159864214     1.0870028075
   80      N      -9.1535970760     3.5957213926    -0.8695742492
   81      S      -8.3382283641     1.6101183616    -2.4103690010
   82      C     -10.2436666931     3.2325604723    -1.6111747993
   83      C     -10.0158015266     2.1696689310    -2.4356364645
   84      C       5.6146129652     3.8375830302     1.7997080754
   85      H       4.5330511299     2.3913264198    -0.2569131375
   86      H       2.1274249088     2.2591939333    -0.7744095051
   87      H       1.3321430018     4.7406501412     2.6814505581
   88      H      -0.4181290504     5.3375735279     1.1959529265
   89      H      -6.8977356945     6.7418288864     2.5523255251
   90      H      -8.3679765791     5.3133686270     0.8948144305
   91      H     -11.1832090197     3.7106021220    -1.3691058057
   92      H     -10.7307337761     1.7418273279    -3.1263610415
   93      H       6.2163797898     3.8325218069     0.8824855982
   94      C       6.2022612568     2.7392958774     2.7779145032
   95      H       5.7235454422     4.8477664807     2.2150851473
   96      H       5.9756106383     1.7026564208     2.4992872720
   97      H       5.6457082554     2.8684014591     3.7147509379
   98      C       7.7297713787     2.9657760126     3.2369674152
   99      H       7.8616592588     3.9238476592     3.7551423925
  100      C       8.6574043946     2.8503102749     2.0410352887
  101      H       7.9718937262     2.1918181430     3.9752085580
  102      H       8.1065210660     3.4144257214     1.2783234680
  103      H       8.6612087297     1.8452226894     1.6008098094
  104      C      10.0272297058     3.4491113316     2.3683056832
  105      H       9.9502287392     4.5427670151     2.4020413777
  106      C      11.1831569280     3.1165833896     1.3882039411
  107      H      10.4880822466     3.1525586145     3.3181795810
  108      H      10.9854487020     3.4528529253     0.3626488442
  109      H      11.4781497280     2.0622307374     1.3301200993
  110      H      12.0059659447     3.7801876331     1.6824482785
 ----------------------------------------------------------------

   10   -5663.5275587199      3.49E-06 Convergence criterion met
 Total energy in the final basis set = -5663.5275587199

                    Orbital Energies (a.u.)
 --------------------------------------------------------------

 Alpha MOs
 -- Occupied --
-88.993 -88.981 -88.928 -88.927 -88.927 -88.921 -88.915 -88.898
-14.393 -14.381 -14.380 -14.379 -14.360 -14.344 -14.343 -14.342
-14.329 -14.327 -10.273 -10.270 -10.266 -10.261 -10.260 -10.255
-10.255 -10.252 -10.248 -10.246 -10.243 -10.242 -10.240 -10.238
-10.236 -10.235 -10.233 -10.233 -10.232 -10.231 -10.230 -10.230
-10.229 -10.226 -10.226 -10.226 -10.225 -10.224 -10.224 -10.220
-10.216 -10.216 -10.213 -10.212 -10.208 -10.207 -10.201 -10.195
-10.191 -10.190 -10.188 -10.186 -10.184 -10.183 -10.180 -10.179
-10.176 -10.176 -10.173 -10.171  -8.049  -8.035  -7.988  -7.988
 -7.987  -7.979  -7.976  -7.959  -6.014  -6.009  -6.007  -6.000
 -5.995  -5.993  -5.952  -5.952  -5.951  -5.949  -5.948  -5.948
 -5.945  -5.945  -5.944  -5.944  -5.940  -5.940  -5.937  -5.936
 -5.932  -5.923  -5.919  -5.915  -1.052  -1.027  -0.974  -0.965
 -0.954  -0.951  -0.939  -0.936  -0.918  -0.908  -0.906  -0.896
 -0.845  -0.835  -0.829  -0.828  -0.811  -0.810  -0.805  -0.803
 -0.802  -0.801  -0.797  -0.796  -0.791  -0.785  -0.769  -0.768
 -0.751  -0.748  -0.744  -0.740  -0.725  -0.718  -0.712  -0.712
 -0.698  -0.691  -0.677  -0.669  -0.655  -0.654  -0.649  -0.643
 -0.638  -0.635  -0.628  -0.625  -0.612  -0.611  -0.598  -0.596
 -0.593  -0.589  -0.589  -0.587  -0.582  -0.577  -0.573  -0.570
 -0.556  -0.547  -0.542  -0.533  -0.525  -0.522  -0.512  -0.508
 -0.507  -0.506  -0.502  -0.498  -0.491  -0.486  -0.480  -0.477
 -0.475  -0.473  -0.472  -0.465  -0.464  -0.461  -0.450  -0.445
 -0.444  -0.441  -0.440  -0.439  -0.437  -0.436  -0.434  -0.432
 -0.429  -0.426  -0.423  -0.423  -0.419  -0.418  -0.416  -0.415
 -0.412  -0.409  -0.408  -0.405  -0.403  -0.401  -0.400  -0.398
 -0.394  -0.392  -0.391  -0.389  -0.386  -0.385  -0.384  -0.383
 -0.382  -0.380  -0.375  -0.372  -0.370  -0.369  -0.366  -0.360
 -0.356  -0.351  -0.350  -0.348  -0.347  -0.345  -0.344  -0.343
 -0.338  -0.335  -0.335  -0.333  -0.332  -0.330  -0.326  -0.320
 -0.316  -0.315  -0.314  -0.309  -0.305  -0.303  -0.303  -0.301
 -0.296  -0.296  -0.293  -0.291  -0.288  -0.286  -0.284  -0.281
 -0.275  -0.272  -0.271  -0.260  -0.256  -0.254  -0.251  -0.247
 -0.245  -0.239  -0.236  -0.233  -0.196  -0.193

          Ground-State Mulliken Net Atomic Charges

     Atom                 Charge (a.u.)
  ----------------------------------------
      1 C                     0.260408
      2 C                    -0.121581
      3 N                    -0.483265
      4 C                    -0.093373
      5 C                     0.091343
      6 C                     0.033061
      7 C                     0.029822
      8 C                     0.059112
      9 C                     0.285438
     10 N                    -0.532083
     11 N                    -0.570193
     12 C                     0.166969
     13 C                     0.259290
     14 S                     0.610228
     15 N                    -0.521707
     16 C                    -0.196771
     17 S                     0.307519
     18 C                    -0.147528
     19 C                    -0.216386
     20 S                     0.272235
     21 C                     0.174321
     22 C                     0.051183
     23 C                    -0.294713
     24 C                    -0.058146
     25 N                    -0.432327
     26 S                     0.277053
     27 C                     0.117425
     28 C                    -0.306559
     29 C                    -0.230514
     30 H                     0.100562
     31 H                     0.114812
     32 H                     0.120769
     33 H                     0.127304
     34 H                     0.130646
     35 H                     0.126866
     36 H                     0.116246
     37 H                     0.134313
     38 H                     0.104112
     39 C                    -0.187007
     40 H                     0.118705
     41 H                     0.096118
     42 H                     0.086307
     43 C                    -0.172464
     44 H                     0.098082
     45 C                    -0.177851
     46 H                     0.098424
     47 H                     0.092273
     48 H                     0.086126
     49 C                    -0.168307
     50 H                     0.097706
     51 C                    -0.318008
     52 H                     0.095901
     53 H                     0.105792
     54 H                     0.097399
     55 H                     0.102554
     56 C                     0.266152
     57 C                    -0.113918
     58 N                    -0.484258
     59 C                    -0.086701
     60 C                     0.080864
     61 C                     0.045809
     62 C                     0.013690
     63 C                     0.063339
     64 C                     0.262023
     65 N                    -0.527172
     66 N                    -0.585057
     67 C                     0.155530
     68 C                     0.302060
     69 S                     0.653947
     70 N                    -0.554774
     71 C                    -0.182424
     72 S                     0.306360
     73 C                    -0.122438
     74 C                    -0.262418
     75 S                     0.261946
     76 C                     0.169845
     77 C                     0.083099
     78 C                    -0.311572
     79 C                    -0.047471
     80 N                    -0.431493
     81 S                     0.255135
     82 C                     0.132768
     83 C                    -0.313043
     84 C                    -0.232079
     85 H                     0.097418
     86 H                     0.111465
     87 H                     0.107400
     88 H                     0.116078
     89 H                     0.133470
     90 H                     0.125886
     91 H                     0.116553
     92 H                     0.127676
     93 H                     0.101762
     94 C                    -0.209912
     95 H                     0.121736
     96 H                     0.100146
     97 H                     0.112060
     98 C                    -0.180696
     99 H                     0.099638
    100 C                    -0.172579
    101 H                     0.095454
    102 H                     0.093257
    103 H                     0.094031
    104 C                    -0.178031
    105 H                     0.098244
    106 C                    -0.328028
    107 H                     0.100079
    108 H                     0.097728
    109 H                     0.105363
    110 H                     0.098408
  ----------------------------------------
  Sum of atomic charges =     0.000000

                    Cartesian Multipole Moments
 -----------------------------------------------------------------
    Charge (ESU x 10^10)
                 0.0000
    Dipole Moment (Debye)
         X      -1.6113      Y      -1.2739      Z      -0.6386
       Tot       2.1510
    Quadrupole Moments (Debye-Ang)
        XX    -389.9643     XY      10.5880     YY    -445.9791
        XZ      11.3957     YZ      -9.8436     ZZ    -441.6481

 Total job time:  97.61s(wall), 1072.98s(cpu)
        *  Thank you very much for using Q-Chem.  Have a nice day.  *
