 Q-Chem 4.4, Q-Chem, Inc., Pleasanton, CA (2016)
 Q-Chem 4.4.2 for Intel X86 Linux

User input:
--------------------------------------------------------------
$comment
SP
$end

$rem
MEM_STATIC 5000
MEM_TOTAL 20000
JOBTYPE SP
EXCHANGE B3LYP
BASIS 6-31g(d,p)
$end

$molecule
0 1
C          14.253000      8.128000     -3.465000
C          13.014000      8.702000     -3.215000
N          15.417000      8.775000     -3.470000
C          12.973000     10.111000     -3.189000
C          15.331000     10.146000     -3.430000
C          14.169000     10.900000     -3.285000
C          14.284000     12.406000     -3.402000
C          15.261000     13.020000     -4.135000
C          13.329000     13.231000     -2.784000
N          15.413000     14.341000     -4.160000
N          12.180000     12.806000     -2.190000
C          13.480000     14.620000     -2.848000
C          14.599000     15.189000     -3.507000
S          11.494000     14.180000     -1.562000
N          12.545000     15.275000     -2.108000
C          14.707000     16.588000     -3.813000
S          13.452000     17.960000     -3.590000
C          15.824000     17.175000     -4.393000
C          14.493000     19.092000     -4.493000
S          17.481000     16.427000     -4.554000
C          15.735000     18.470000     -4.687000
C          14.214000     20.458000     -4.928000
C          17.990000     17.948000     -5.346000
C          16.984000     18.875000     -5.384000
N          15.204000     21.277000     -5.154000
S          12.630000     21.163000     -4.936000
C          14.798000     22.595000     -5.140000
C          13.430000     22.719000     -5.121000
C          14.308000      6.675000     -3.827000
H          12.083000      8.143000     -3.232000
H          11.980000     10.551000     -3.187000
H          16.270000     10.681000     -3.562000
H          15.968000     12.519000     -4.795000
H          18.967000     18.056000     -5.798000
H          17.061000     19.889000     -5.760000
H          15.578000     23.343000     -5.193000
H          12.883000     23.653000     -5.135000
H          15.289000      6.445000     -4.262000
C          13.234000      6.154000     -4.758000
H          14.139000      6.075000     -2.925000
H          13.111000      6.953000     -5.500000
H          12.216000      6.071000     -4.356000
C          13.467000      4.692000     -5.237000
H          14.266000      4.177000     -4.691000
C          13.933000      4.666000     -6.710000
H          12.547000      4.125000     -5.051000
H          14.029000      3.603000     -6.963000
H          14.951000      5.074000     -6.721000
C          13.051000      5.237000     -7.873000
H          12.212000      4.532000     -7.846000
C          13.825000      5.443000     -9.159000
H          12.681000      6.235000     -7.605000
H          13.211000      5.847000     -9.973000
H          14.310000      4.474000     -9.328000
H          14.592000      6.204000     -8.968000
C           4.464000     13.625000     -0.728000
C           5.531000     14.471000     -0.757000
N           4.503000     12.507000     -1.471000
C           6.666000     14.200000     -1.511000
C           5.657000     12.203000     -2.164000
C           6.766000     13.002000     -2.324000
C           7.915000     12.550000     -3.140000
C           8.656000     13.553000     -3.763000
C           8.297000     11.199000     -3.407000
N           9.721000     13.297000     -4.599000
N           7.843000     10.111000     -2.802000
C           9.326000     10.971000     -4.282000
C          10.078000     12.015000     -4.868000
S           8.674000      8.875000     -3.353000
N           9.632000      9.607000     -4.466000
C          11.193000     11.807000     -5.809000
S          11.849000     10.268000     -6.390000
C          12.025000     12.787000     -6.294000
C          13.223000     11.013000     -7.208000
S          11.891000     14.536000     -6.131000
C          13.095000     12.369000     -7.080000
C          14.443000     10.355000     -7.501000
C          13.581000     14.616000     -6.811000
C          13.983000     13.435000     -7.324000
N          14.639000      9.251000     -6.806000
S          15.719000     10.837000     -8.560000
C          15.929000      8.800000     -7.010000
C          16.588000      9.469000     -7.999000
C           3.227000     13.790000      0.146000
H           5.518000     15.390000     -0.178000
H           7.478000     14.918000     -1.452000
H           5.522000     11.272000     -2.712000
H           8.302000     14.582000     -3.802000
H          14.055000     15.570000     -7.000000
H          14.937000     13.363000     -7.833000
H          16.360000      7.993000     -6.433000
H          17.530000      9.149000     -8.426000
H           3.283000     13.033000      0.938000
C           1.837000     13.800000     -0.549000
H           3.345000     14.778000      0.610000
H           1.922000     13.202000     -1.465000
H           1.549000     14.802000     -0.891000
C           0.711000     13.211000      0.300000
H           0.973000     12.305000      0.860000
C          -0.580000     12.886000     -0.531000
H           0.486000     13.993000      1.035000
H          -0.438000     12.114000     -1.298000
H          -0.817000     13.716000     -1.208000
C          -1.879000     12.639000      0.223000
H          -1.722000     12.069000      1.148000
C          -2.999000     12.040000     -0.678000
H          -2.207000     13.597000      0.643000
H          -3.485000     12.787000     -1.317000
H          -3.866000     11.739000     -0.077000
H          -2.734000     11.137000     -1.241000
$end

--------------------------------------------------------------

             Standard Nuclear Orientation (Angstroms)
    I     Atom           X                Y                Z
 ----------------------------------------------------------------
    1      C       1.6837759871    -4.8042835737     2.3438002182
    2      C       0.5203982084    -4.1030122398     2.0576749652
    3      N       2.8566485925    -4.2583549224     2.6598093307
    4      C       0.6600492971    -2.7126218923     1.8707250921
    5      C       2.9445997076    -2.8993732417     2.4752276607
    6      C       1.9121328397    -2.0458584213     2.0940326740
    7      C       2.2581359482    -0.5973738861     1.8163198720
    8      C       3.4967412281    -0.1984060627     1.3973978785
    9      C       1.2692600369     0.3937869567     1.9358966906
   10      N       3.8218489926     1.0820006745     1.2436658751
   11      N      -0.0580312224     0.1687297137     2.1391432171
   12      C       1.6155394382     1.7341032775     1.7362451535
   13      C       2.9557559283     2.0912484576     1.4421871999
   14      S      -0.7266933902     1.6800460630     2.2863498662
   15      N       0.5818261365     2.5784978583     1.9994648374
   16      C       3.3445332141     3.4018402030     1.0020707393
   17      S       2.2809949394     4.8826469913     0.5740104705
   18      C       4.6587371975     3.7907701355     0.7778846613
   19      C       3.7049846171     5.7550368656    -0.0518515790
   20      S       6.1589895327     2.9028464149     1.3181701387
   21      C       4.8459955250     5.0163371912     0.2938374416
   22      C       3.7718138079     7.0397267432    -0.7433194219
   23      C       7.1011007184     4.2168686212     0.5529524212
   24      C       6.2984854849     5.1959853060     0.0333869254
   25      N       4.8794226694     7.7285348308    -0.7171846105
   26      S       2.3907002650     7.8500437969    -1.4081928339
   27      C       4.6706666700     9.0551301175    -1.0313849891
   28      C       3.4049666901     9.2837212024    -1.5139931913
   29      C       1.6641956233    -6.2983265135     2.2309715712
   30      H      -0.4161440130    -4.5841106354     1.7912842724
   31      H      -0.2083780139    -2.2053221840     1.4606836169
   32      H       3.9354639800    -2.4687797380     2.6099393093
   33      H       4.3113603645    -0.8602722029     1.1062297570
   34      H       8.1783164788     4.1689740322     0.4645820990
   35      H       6.6308701451     6.1187346748    -0.4287332322
   36      H       5.5149336534     9.7207507561    -0.9094201329
   37      H       3.0232635643    10.2392083877    -1.8503084637
   38      H       2.6946652188    -6.6752062270     2.2068864254
   39      C       0.9062888829    -6.8929321728     1.0631961293
   40      H       1.1241961774    -6.7148309011     3.0895108501
   41      H       1.1466031506    -6.2307490291     0.2218540246
   42      H      -0.1890586250    -6.8262424849     1.0873481987
   43      C       1.0908056110    -8.4299692365     0.9062100096
   44      H       1.5843418712    -8.8992819212     1.7652266356
   45      C       2.0166287590    -8.7512252915    -0.2884477011
   46      H       0.0952862671    -8.8838545841     0.8326278982
   47      H       2.0503310626    -9.8463798132    -0.3403584747
   48      H       3.0237077616    -8.4298436627     0.0038102864
   49      C       1.6603208867    -8.3297793197    -1.7554044124
   50      H       0.7754599360    -8.9533346248    -1.9282479237
   51      C       2.8412980623    -8.4136137238    -2.7006941581
   52      H       1.3574503977    -7.2750189639    -1.7772689685
   53      H       2.5955891949    -8.1146215088    -3.7268709498
   54      H       3.2220056945    -9.4311141314    -2.5506887600
   55      H       3.5932183874    -7.6911055777    -2.3593895970
   56      C      -7.6361914954     1.8150006244     0.6538351802
   57      C      -6.5193600860     2.5593115435     0.8856429853
   58      N      -7.4983676602     0.5835413991     0.1361414803
   59      C      -5.2435732834     2.0741324138     0.6265074102
   60      C      -6.2297192627     0.0753269012    -0.0552488736
   61      C      -5.0359501728     0.7471718018     0.0767427530
   62      C      -3.7502583087     0.0723494427    -0.2095651484
   63      C      -2.7171578423     0.8903679027    -0.6642828910
   64      C      -3.4832867537    -1.3295507391    -0.1333019923
   65      N      -1.4771245958     0.4107071493    -1.0260840920
   66      N      -4.2539552891    -2.2558885330     0.4179269077
   67      C      -2.2600193623    -1.7859057555    -0.5477980576
   68      C      -1.2236565175    -0.9219428404    -0.9701203695
   69      S      -3.4576539390    -3.6291413165     0.3738933700
   70      N      -2.0935189964    -3.1801337823    -0.4197596351
   71      C       0.1046254992    -1.3768515537    -1.4181102652
   72      S       0.7076725687    -3.0395050961    -1.5094088394
   73      C       1.1731966186    -0.5638891979    -1.7098241164
   74      C       2.3624013181    -2.5570636964    -1.8851056075
   75      S       1.2251413998     1.1914171832    -1.8502778388
   76      C       2.3796441944    -1.1940619013    -2.0010055214
   77      C       3.5113760578    -3.3469319732    -1.6337529611
   78      C       3.0401358413     1.0217599666    -1.8939997550
   79      C       3.4308914725    -0.2583284267    -2.0619811293
   80      N       3.3145268561    -4.3222562664    -0.7675832809
   81      S       5.1208179858    -3.1577774616    -2.2303250448
   82      C       4.5263075152    -4.8985505742    -0.4380540635
   83      C       5.5616184985    -4.4668078947    -1.2137424200
   84      C      -9.0614397460     2.2250991856     1.0027715561
   85      H      -6.6042164091     3.5645188001     1.2885434394
   86      H      -4.4110519678     2.7276959431     0.8675716594
   87      H      -6.2948822921    -0.9249721460    -0.4800377573
   88      H      -2.8978983425     1.9200518290    -0.9688512470
   89      H       3.6719978476     1.8886469712    -2.0346067472
   90      H       4.4819608070    -0.4912001653    -2.1860980396
   91      H       4.6275759851    -5.6210742795     0.3604715731
   92      H       6.5411112799    -4.9276403934    -1.2316393279
   93      H      -9.3754648208     1.6180445853     1.8608636051
   94      C     -10.1229645939     2.2172283803    -0.1322738385
   95      H      -8.9763701199     3.2677669935     1.3358946581
   96      H      -9.8152700286     1.4619858307    -0.8663158984
   97      H     -10.1439723859     3.1618416345    -0.6901057780
   98      C     -11.5361677239     1.8745840088     0.3378854409
   99      H     -11.5999049025     1.0646948291     1.0748366527
  100      C     -12.5040645083     1.5064264799    -0.8413104074
  101      H     -11.8892632565     2.7889815417     0.8293879299
  102      H     -12.2163000970     0.6024661342    -1.3931114015
  103      H     -12.3877859117     2.2191535360    -1.6670812180
  104      C     -14.0013987769     1.4956918502    -0.5678129566
  105      H     -14.2411345065     1.0880187014     0.4228955695
  106      C     -14.8226093889     0.8333294086    -1.7131911154
  107      H     -14.3214474391     2.5348980656    -0.4286465247
  108      H     -14.9622933600     1.4901731797    -2.5801228593
  109      H     -15.8728461038     0.7098493107    -1.4212210687
  110      H     -14.5060021814    -0.1724217699    -2.0145670319
 ----------------------------------------------------------------

   10   -5663.4968318774      5.68E-06 Convergence criterion met
 Total energy in the final basis set = -5663.4968318774

                    Orbital Energies (a.u.)
 --------------------------------------------------------------

 Alpha MOs
 -- Occupied --
-88.996 -88.984 -88.934 -88.931 -88.930 -88.918 -88.906 -88.904
-14.394 -14.385 -14.380 -14.374 -14.353 -14.343 -14.341 -14.339
-14.325 -14.321 -10.272 -10.268 -10.267 -10.261 -10.259 -10.256
-10.249 -10.247 -10.246 -10.245 -10.244 -10.239 -10.237 -10.235
-10.234 -10.231 -10.230 -10.227 -10.227 -10.226 -10.226 -10.226
-10.221 -10.221 -10.220 -10.220 -10.218 -10.217 -10.217 -10.217
-10.207 -10.206 -10.204 -10.202 -10.197 -10.195 -10.193 -10.189
-10.186 -10.179 -10.179 -10.178 -10.178 -10.173 -10.173 -10.172
-10.172 -10.171 -10.170 -10.169  -8.052  -8.039  -7.995  -7.991
 -7.988  -7.977  -7.964  -7.962  -6.017  -6.011  -6.010  -6.004
 -5.998  -5.997  -5.959  -5.956  -5.955  -5.953  -5.952  -5.952
 -5.949  -5.948  -5.945  -5.941  -5.937  -5.933  -5.929  -5.927
 -5.925  -5.924  -5.921  -5.918  -1.051  -1.028  -0.977  -0.976
 -0.957  -0.955  -0.935  -0.929  -0.915  -0.906  -0.905  -0.892
 -0.841  -0.838  -0.831  -0.824  -0.815  -0.813  -0.807  -0.805
 -0.803  -0.802  -0.798  -0.787  -0.785  -0.779  -0.771  -0.767
 -0.753  -0.747  -0.743  -0.732  -0.727  -0.720  -0.712  -0.706
 -0.697  -0.689  -0.678  -0.671  -0.661  -0.647  -0.647  -0.643
 -0.641  -0.635  -0.625  -0.617  -0.615  -0.606  -0.601  -0.598
 -0.595  -0.592  -0.581  -0.578  -0.577  -0.573  -0.572  -0.551
 -0.548  -0.547  -0.544  -0.536  -0.527  -0.521  -0.519  -0.510
 -0.509  -0.502  -0.501  -0.491  -0.486  -0.482  -0.480  -0.475
 -0.473  -0.467  -0.466  -0.464  -0.460  -0.459  -0.450  -0.448
 -0.445  -0.441  -0.440  -0.438  -0.437  -0.436  -0.432  -0.430
 -0.429  -0.425  -0.422  -0.421  -0.419  -0.417  -0.416  -0.416
 -0.411  -0.409  -0.405  -0.399  -0.399  -0.398  -0.397  -0.393
 -0.393  -0.391  -0.391  -0.387  -0.385  -0.385  -0.384  -0.383
 -0.382  -0.378  -0.372  -0.367  -0.366  -0.364  -0.357  -0.352
 -0.351  -0.350  -0.347  -0.343  -0.341  -0.340  -0.338  -0.337
 -0.336  -0.334  -0.332  -0.329  -0.329  -0.325  -0.317  -0.312
 -0.309  -0.308  -0.307  -0.304  -0.303  -0.302  -0.302  -0.299
 -0.298  -0.292  -0.290  -0.288  -0.284  -0.283  -0.279  -0.278
 -0.275  -0.272  -0.264  -0.263  -0.253  -0.252  -0.249  -0.249
 -0.243  -0.241  -0.234  -0.227  -0.198  -0.191

          Ground-State Mulliken Net Atomic Charges

     Atom                 Charge (a.u.)
  ----------------------------------------
      1 C                     0.301243
      2 C                    -0.096407
      3 N                    -0.513498
      4 C                    -0.068215
      5 C                     0.055728
      6 C                     0.062775
      7 C                     0.038269
      8 C                     0.055381
      9 C                     0.251308
     10 N                    -0.509565
     11 N                    -0.581488
     12 C                     0.187441
     13 C                     0.290576
     14 S                     0.602264
     15 N                    -0.553339
     16 C                    -0.205517
     17 S                     0.311218
     18 C                    -0.118905
     19 C                    -0.232285
     20 S                     0.261992
     21 C                     0.159502
     22 C                     0.068445
     23 C                    -0.303008
     24 C                    -0.053383
     25 N                    -0.425742
     26 S                     0.265566
     27 C                     0.129210
     28 C                    -0.318332
     29 C                    -0.226268
     30 H                     0.092508
     31 H                     0.109359
     32 H                     0.090570
     33 H                     0.120691
     34 H                     0.129014
     35 H                     0.120889
     36 H                     0.122055
     37 H                     0.133016
     38 H                     0.107761
     39 C                    -0.194200
     40 H                     0.108045
     41 H                     0.132236
     42 H                     0.080478
     43 C                    -0.198529
     44 H                     0.098026
     45 C                    -0.174411
     46 H                     0.087466
     47 H                     0.080982
     48 H                     0.083035
     49 C                    -0.171386
     50 H                     0.088402
     51 C                    -0.313042
     52 H                     0.099812
     53 H                     0.102718
     54 H                     0.099531
     55 H                     0.107308
     56 C                     0.276769
     57 C                    -0.113368
     58 N                    -0.493415
     59 C                    -0.091243
     60 C                     0.051529
     61 C                     0.061103
     62 C                     0.049797
     63 C                     0.041004
     64 C                     0.257654
     65 N                    -0.546946
     66 N                    -0.536930
     67 C                     0.157656
     68 C                     0.332873
     69 S                     0.619372
     70 N                    -0.553992
     71 C                    -0.231951
     72 S                     0.362121
     73 C                    -0.121566
     74 C                    -0.232345
     75 S                     0.264316
     76 C                     0.146499
     77 C                     0.059936
     78 C                    -0.296800
     79 C                    -0.072204
     80 N                    -0.428053
     81 S                     0.283923
     82 C                     0.124392
     83 C                    -0.307484
     84 C                    -0.218934
     85 H                     0.085572
     86 H                     0.096408
     87 H                     0.108137
     88 H                     0.126293
     89 H                     0.132971
     90 H                     0.111175
     91 H                     0.131446
     92 H                     0.134884
     93 H                     0.124304
     94 C                    -0.183185
     95 H                     0.090799
     96 H                     0.121598
     97 H                     0.095148
     98 C                    -0.180397
     99 H                     0.098843
    100 C                    -0.175112
    101 H                     0.090364
    102 H                     0.094045
    103 H                     0.086719
    104 C                    -0.177403
    105 H                     0.090694
    106 C                    -0.329335
    107 H                     0.092762
    108 H                     0.105872
    109 H                     0.098382
    110 H                     0.107999
  ----------------------------------------
  Sum of atomic charges =     0.000000

                    Cartesian Multipole Moments
 -----------------------------------------------------------------
    Charge (ESU x 10^10)
                 0.0000
    Dipole Moment (Debye)
         X       0.5632      Y       2.7104      Z      -1.4356
       Tot       3.1184
    Quadrupole Moments (Debye-Ang)
        XX    -424.2946     XY      -5.9945     YY    -401.2533
        XZ     -16.8698     YZ      -6.2072     ZZ    -456.4271

 Total job time:  119.54s(wall), 1297.02s(cpu)
        *  Thank you very much for using Q-Chem.  Have a nice day.  *
