 Q-Chem 4.4, Q-Chem, Inc., Pleasanton, CA (2016)
 Q-Chem 4.4.2 for Intel X86 Linux

User input:
--------------------------------------------------------------
$comment
SP
$end

$rem
MEM_STATIC 5000
MEM_TOTAL 20000
JOBTYPE SP
EXCHANGE B3LYP
BASIS 6-31g(d,p)
$end

$molecule
0 1
C          11.480000     11.105000      1.123000
C          10.387000     11.481000      0.262000
N          11.427000     11.406000      2.452000
C           9.192000     11.945000      0.856000
C          10.320000     11.984000      2.967000
C           9.156000     12.212000      2.246000
C           7.897000     12.739000      2.892000
C           7.040000     13.656000      2.264000
C           7.354000     12.082000      4.027000
N           5.763000     13.923000      2.703000
N           7.967000     11.115000      4.655000
C           6.171000     12.431000      4.618000
C           5.350000     13.346000      3.858000
S           6.964000     10.663000      5.840000
N           5.671000     11.595000      5.557000
C           4.017000     13.807000      4.336000
S           2.528000     13.904000      3.403000
C           3.753000     14.101000      5.676000
C           1.599000     14.423000      4.824000
S           4.875000     14.205000      7.035000
C           2.450000     14.524000      5.890000
C           0.202000     14.823000      4.815000
C           3.453000     14.776000      7.993000
C           2.258000     14.899000      7.286000
N          -0.393000     14.546000      3.647000
S          -0.544000     16.001000      5.767000
C          -1.578000     15.253000      3.564000
C          -1.715000     16.200000      4.552000
C          12.771000     10.475000      0.673000
H          10.462000     11.299000     -0.806000
H           8.327000     12.156000      0.234000
H          10.322000     12.250000      4.023000
H           7.261000     14.071000      1.281000
H           3.653000     14.964000      9.040000
H           1.276000     15.156000      7.668000
H          -2.192000     15.185000      2.676000
H          -2.543000     16.885000      4.679000
H          12.787000     10.526000     -0.423000
C          12.809000      8.953000      1.143000
H          13.651000     10.992000      1.076000
H          12.005000      8.410000      0.631000
H          12.726000      8.837000      2.231000
C          14.139000      8.259000      0.632000
H          14.415000      8.756000     -0.306000
C          13.994000      6.771000      0.254000
H          14.920000      8.416000      1.386000
H          13.280000      6.730000     -0.577000
H          13.540000      6.270000      1.117000
C          15.276000      6.109000     -0.214000
H          15.775000      6.671000     -1.012000
C          15.017000      4.571000     -0.471000
H          15.996000      6.167000      0.612000
H          15.904000      3.927000     -0.523000
H          14.346000      4.493000     -1.335000
H          14.447000      4.132000      0.357000
C           4.464000     13.625000     -0.728000
C           5.531000     14.471000     -0.757000
N           4.503000     12.507000     -1.471000
C           6.666000     14.200000     -1.511000
C           5.657000     12.203000     -2.164000
C           6.766000     13.002000     -2.324000
C           7.915000     12.550000     -3.140000
C           8.656000     13.553000     -3.763000
C           8.297000     11.199000     -3.407000
N           9.721000     13.297000     -4.599000
N           7.843000     10.111000     -2.802000
C           9.326000     10.971000     -4.282000
C          10.078000     12.015000     -4.868000
S           8.674000      8.875000     -3.353000
N           9.632000      9.607000     -4.466000
C          11.193000     11.807000     -5.809000
S          11.849000     10.268000     -6.390000
C          12.025000     12.787000     -6.294000
C          13.223000     11.013000     -7.208000
S          11.891000     14.536000     -6.131000
C          13.095000     12.369000     -7.080000
C          14.443000     10.355000     -7.501000
C          13.581000     14.616000     -6.811000
C          13.983000     13.435000     -7.324000
N          14.639000      9.251000     -6.806000
S          15.719000     10.837000     -8.560000
C          15.929000      8.800000     -7.010000
C          16.588000      9.469000     -7.999000
C           3.227000     13.790000      0.146000
H           5.518000     15.390000     -0.178000
H           7.478000     14.918000     -1.452000
H           5.522000     11.272000     -2.712000
H           8.302000     14.582000     -3.802000
H          14.055000     15.570000     -7.000000
H          14.937000     13.363000     -7.833000
H          16.360000      7.993000     -6.433000
H          17.530000      9.149000     -8.426000
H           3.283000     13.033000      0.938000
C           1.837000     13.800000     -0.549000
H           3.345000     14.778000      0.610000
H           1.922000     13.202000     -1.465000
H           1.549000     14.802000     -0.891000
C           0.711000     13.211000      0.300000
H           0.973000     12.305000      0.860000
C          -0.580000     12.886000     -0.531000
H           0.486000     13.993000      1.035000
H          -0.438000     12.114000     -1.298000
H          -0.817000     13.716000     -1.208000
C          -1.879000     12.639000      0.223000
H          -1.722000     12.069000      1.148000
C          -2.999000     12.040000     -0.678000
H          -2.207000     13.597000      0.643000
H          -3.485000     12.787000     -1.317000
H          -3.866000     11.739000     -0.077000
H          -2.734000     11.137000     -1.241000
$end

--------------------------------------------------------------

             Standard Nuclear Orientation (Angstroms)
    I     Atom           X                Y                Z
 ----------------------------------------------------------------
    1      C      -2.3179978771    -3.4527370461    -0.7552647834
    2      C      -1.9253601213    -2.0808300692    -0.5526497805
    3      N      -1.3971821426    -4.3621495887    -1.1850533485
    4      C      -0.5488872428    -1.7637741959    -0.5835526579
    5      C      -0.1082250811    -3.9904557192    -1.3437712139
    6      C       0.3880925958    -2.7413394876    -0.9972190482
    7      C       1.8596641994    -2.4101138541    -1.0671661363
    8      C       2.3444610253    -1.1595868147    -1.4805378350
    9      C       2.8049029113    -3.2379299478    -0.4068879430
   10      N       3.6416912833    -0.7455145679    -1.2793492857
   11      N       2.4928393542    -4.3780982962     0.1479764311
   12      C       4.1430633163    -2.9639161882    -0.3375035789
   13      C       4.5197903986    -1.6296174138    -0.7456573322
   14      S       3.8654745040    -4.9351558693     0.7961258009
   15      N       4.8937971931    -3.7217744385     0.4947623153
   16      C       5.9293702488    -1.1508155256    -0.7040953554
   17      S       6.5113688395     0.3892012801    -0.0822876048
   18      C       7.0148892946    -1.9610700914    -1.0459548874
   19      C       8.2030556005    -0.0607261518    -0.3779296327
   20      S       7.0178310124    -3.5743257378    -1.7628778719
   21      C       8.2320110080    -1.3043677479    -0.9465025523
   22      C       9.3500887533     0.8116402048    -0.1908951811
   23      C       8.8131573579    -3.3870759498    -1.8502267722
   24      C       9.3164342517    -2.1684500853    -1.3978260977
   25      N       9.0233731483     1.9415506085     0.4506166218
   26      S      10.7748475154     0.8572165558    -1.0955991471
   27      C      10.0380894049     2.8655766397     0.2848161020
   28      C      10.9688482038     2.4865048409    -0.6541805059
   29      C      -3.7190238530    -3.9890110405    -0.6302951168
   30      H      -2.6755923578    -1.3465585427    -0.2744952972
   31      H      -0.2226285677    -0.7539545089    -0.3523612292
   32      H       0.5964501206    -4.7269579170    -1.7270379262
   33      H       1.6777518440    -0.3649039653    -1.8142038902
   34      H       9.3439284436    -4.2464324773    -2.2392530094
   35      H      10.3533417143    -1.8671888073    -1.2960343670
   36      H       9.9459974272     3.8575065050     0.7064299181
   37      H      11.8359890018     3.0524378206    -0.9683853736
   38      H      -4.3861259282    -3.1227712096    -0.5371480466
   39      C      -3.8243889515    -4.8942641311     0.6767026024
   40      H      -4.0164544390    -4.5876938712    -1.5004743597
   41      H      -3.6570173699    -4.2588444492     1.5551316442
   42      H      -3.1269438078    -5.7413862116     0.6701107736
   43      C      -5.3073114472    -5.4249585725     0.8526607839
   44      H      -5.9687090872    -4.6662854910     0.4167739669
   45      C      -5.7822748712    -5.5598506085     2.3135738150
   46      H      -5.4019558424    -6.3689757230     0.3022063734
   47      H      -5.7575603694    -4.5511172281     2.7423909797
   48      H      -5.0327811399    -6.1683059912     2.8331189949
   49      C      -7.1950726537    -6.0882345970     2.4735887721
   50      H      -7.9245174905    -5.5333564874     1.8721991200
   51      C      -7.5220270913    -6.2752693232     4.0087411446
   52      H      -7.2233200389    -7.0904056160     2.0276119411
   53      H      -8.3783926058    -6.9167134585     4.2524551715
   54      H      -7.5587579398    -5.2757589762     4.4586865979
   55      H      -6.6912794856    -6.7747034526     4.5221892587
   56      C       2.4652141354     2.5147582986    -0.0406046160
   57      C       1.8417096597     2.2682811882    -1.2261581588
   58      N       1.7170013211     2.6951824037     1.0599037788
   59      C       0.4592415402     2.1733514594    -1.3259190979
   60      C       0.3494220992     2.5313961279     0.9745683951
   61      C      -0.3968077457     2.3494669740    -0.1673268722
   62      C      -1.8707440565     2.2341441541    -0.0996999628
   63      C      -2.5717062809     2.6758539259    -1.2207545724
   64      C      -2.6443032222     1.7839452857     1.0144549618
   65      N      -3.9475411706     2.6867044286    -1.2957053746
   66      N      -2.1917429955     1.1775805890     2.1022950676
   67      C      -4.0099620322     1.8536179704     0.9333887440
   68      C      -4.6869556885     2.2745947129    -0.2342131453
   69      S      -3.4505546089     0.7542575558     2.9729551227
   70      N      -4.6785826461     1.3737499490     2.0782298494
   71      C      -6.1531043771     2.3578013652    -0.3585299818
   72      S      -7.3699518377     1.9462093468     0.8606058876
   73      C      -6.8444103379     2.6362464469    -1.5128321108
   74      C      -8.7301227763     2.1222347117    -0.2488872798
   75      S      -6.2269867420     3.1737368133    -3.0727738435
   76      C      -8.2321991162     2.5502646825    -1.4490399255
   77      C      -9.9885239447     1.4906989257    -0.0914006126
   78      C      -7.9007644898     2.8506294147    -3.7200525005
   79      C      -8.7986896468     2.6402366119    -2.7356748895
   80      N      -9.9768843661     0.4691933471     0.7432537309
   81      S     -11.4839068093     1.8169039505    -0.8910263813
   82      C     -11.1847537163    -0.1980704347     0.6730563063
   83      C     -12.1260446564     0.4590810565    -0.0632087843
   84      C       3.9726562808     2.5330114896     0.1797473735
   85      H       2.4229951302     2.1348558219    -2.1340545590
   86      H       0.0517733356     1.9476089032    -2.3064082414
   87      H      -0.1038530295     2.7137489724     1.9474913611
   88      H      -2.0823366934     3.2412272093    -2.0123027120
   89      H      -8.1471690248     3.0755892765    -4.7492224893
   90      H      -9.8476275395     2.5158645067    -2.9778357382
   91      H     -11.3520027991    -1.1489098104     1.1607767445
   92      H     -13.1750871830     0.1924635130    -0.0859653844
   93      H       4.2319791712     1.6267716795     0.7409336573
   94      C       4.6038765912     3.8055984963     0.8100712823
   95      H       4.4012479971     2.4446258438    -0.8271593343
   96      H       3.8394653574     4.2742338599     1.4424804550
   97      H       4.8524264371     4.5643263961     0.0574312965
   98      C       5.8324177871     3.5289422288     1.6759499340
   99      H       5.7591201148     2.6459373086     2.3224866785
  100      C       6.2261017424     4.7422522666     2.5901483238
  101      H       6.6364466070     3.3375567726     0.9553368174
  102      H       5.4677880205     5.0053952483     3.3385820686
  103      H       6.1911499735     5.6778628971     2.0184761083
  104      C       7.6092351098     4.7465604987     3.2256398872
  105      H       7.9176475310     3.7471914722     3.5592824015
  106      C       7.7656078887     5.8321399908     4.3311111534
  107      H       8.3414077533     4.9151977089     2.4273713162
  108      H       7.9224400831     6.8397704454     3.9278611940
  109      H       8.7158210347     5.7122399269     4.8660970895
  110      H       7.0071720532     5.8269489074     5.1231661616
 ----------------------------------------------------------------

    9   -5663.5071159948      6.21E-06 Convergence criterion met
 Total energy in the final basis set = -5663.5071159948

                    Orbital Energies (a.u.)
 --------------------------------------------------------------

 Alpha MOs
 -- Occupied --
-88.994 -88.986 -88.934 -88.932 -88.920 -88.919 -88.912 -88.905
-14.392 -14.390 -14.383 -14.378 -14.352 -14.351 -14.342 -14.341
-14.324 -14.322 -10.268 -10.267 -10.264 -10.263 -10.260 -10.256
-10.253 -10.250 -10.242 -10.239 -10.237 -10.236 -10.236 -10.234
-10.234 -10.231 -10.230 -10.229 -10.229 -10.228 -10.227 -10.226
-10.225 -10.224 -10.222 -10.221 -10.220 -10.219 -10.218 -10.216
-10.212 -10.210 -10.210 -10.205 -10.204 -10.202 -10.198 -10.193
-10.188 -10.183 -10.179 -10.176 -10.174 -10.174 -10.173 -10.172
-10.169 -10.169 -10.165 -10.164  -8.050  -8.043  -7.996  -7.995
 -7.979  -7.977  -7.972  -7.964  -6.015  -6.009  -6.008  -6.008
 -6.002  -6.001  -5.960  -5.959  -5.957  -5.955  -5.953  -5.952
 -5.943  -5.942  -5.939  -5.938  -5.936  -5.935  -5.934  -5.933
 -5.929  -5.928  -5.926  -5.920  -1.056  -1.048  -0.977  -0.972
 -0.953  -0.948  -0.931  -0.928  -0.919  -0.915  -0.906  -0.904
 -0.842  -0.838  -0.836  -0.828  -0.817  -0.816  -0.811  -0.807
 -0.801  -0.798  -0.791  -0.790  -0.780  -0.779  -0.767  -0.764
 -0.749  -0.746  -0.741  -0.737  -0.721  -0.720  -0.708  -0.706
 -0.693  -0.691  -0.677  -0.671  -0.656  -0.654  -0.645  -0.641
 -0.640  -0.635  -0.623  -0.621  -0.613  -0.603  -0.600  -0.598
 -0.594  -0.592  -0.582  -0.579  -0.575  -0.573  -0.568  -0.563
 -0.547  -0.546  -0.543  -0.541  -0.527  -0.523  -0.521  -0.518
 -0.507  -0.505  -0.502  -0.500  -0.486  -0.485  -0.478  -0.478
 -0.473  -0.471  -0.468  -0.464  -0.462  -0.451  -0.450  -0.446
 -0.443  -0.438  -0.437  -0.435  -0.435  -0.434  -0.432  -0.429
 -0.426  -0.423  -0.422  -0.419  -0.418  -0.417  -0.412  -0.410
 -0.408  -0.406  -0.401  -0.398  -0.398  -0.396  -0.394  -0.394
 -0.393  -0.391  -0.391  -0.388  -0.385  -0.385  -0.383  -0.380
 -0.379  -0.378  -0.367  -0.366  -0.365  -0.362  -0.361  -0.357
 -0.353  -0.351  -0.351  -0.348  -0.347  -0.344  -0.343  -0.341
 -0.335  -0.331  -0.331  -0.330  -0.328  -0.324  -0.318  -0.314
 -0.314  -0.311  -0.305  -0.304  -0.302  -0.300  -0.299  -0.298
 -0.296  -0.296  -0.295  -0.291  -0.284  -0.283  -0.282  -0.280
 -0.276  -0.275  -0.272  -0.263  -0.255  -0.253  -0.246  -0.245
 -0.242  -0.241  -0.235  -0.232  -0.198  -0.195

          Ground-State Mulliken Net Atomic Charges

     Atom                 Charge (a.u.)
  ----------------------------------------
      1 C                     0.269805
      2 C                    -0.133835
      3 N                    -0.487203
      4 C                    -0.081262
      5 C                     0.097317
      6 C                     0.043804
      7 C                     0.022515
      8 C                     0.050246
      9 C                     0.241801
     10 N                    -0.488229
     11 N                    -0.532126
     12 C                     0.153814
     13 C                     0.226798
     14 S                     0.603261
     15 N                    -0.476435
     16 C                    -0.231727
     17 S                     0.372897
     18 C                    -0.106915
     19 C                    -0.247453
     20 S                     0.252510
     21 C                     0.138716
     22 C                     0.052132
     23 C                    -0.303689
     24 C                    -0.062729
     25 N                    -0.431283
     26 S                     0.298297
     27 C                     0.112318
     28 C                    -0.314324
     29 C                    -0.220295
     30 H                     0.087783
     31 H                     0.112594
     32 H                     0.105213
     33 H                     0.105678
     34 H                     0.129823
     35 H                     0.110694
     36 H                     0.118370
     37 H                     0.135348
     38 H                     0.096466
     39 C                    -0.183741
     40 H                     0.124868
     41 H                     0.093780
     42 H                     0.120422
     43 C                    -0.186315
     44 H                     0.091171
     45 C                    -0.170800
     46 H                     0.093087
     47 H                     0.089105
     48 H                     0.092448
     49 C                    -0.175397
     50 H                     0.094774
     51 C                    -0.323477
     52 H                     0.092103
     53 H                     0.099497
     54 H                     0.105064
     55 H                     0.104009
     56 C                     0.271709
     57 C                    -0.110191
     58 N                    -0.489761
     59 C                    -0.105535
     60 C                     0.049682
     61 C                     0.052423
     62 C                     0.047114
     63 C                     0.048421
     64 C                     0.258243
     65 N                    -0.542621
     66 N                    -0.542285
     67 C                     0.151773
     68 C                     0.327786
     69 S                     0.620903
     70 N                    -0.546179
     71 C                    -0.225877
     72 S                     0.356048
     73 C                    -0.117056
     74 C                    -0.230090
     75 S                     0.267834
     76 C                     0.144852
     77 C                     0.057809
     78 C                    -0.304691
     79 C                    -0.067578
     80 N                    -0.420299
     81 S                     0.283304
     82 C                     0.119501
     83 C                    -0.303491
     84 C                    -0.214099
     85 H                     0.099279
     86 H                     0.098975
     87 H                     0.108544
     88 H                     0.125422
     89 H                     0.121597
     90 H                     0.107616
     91 H                     0.118806
     92 H                     0.133200
     93 H                     0.131739
     94 C                    -0.187362
     95 H                     0.108205
     96 H                     0.113435
     97 H                     0.091264
     98 C                    -0.186350
     99 H                     0.100469
    100 C                    -0.178586
    101 H                     0.118162
    102 H                     0.090130
    103 H                     0.081471
    104 C                    -0.178076
    105 H                     0.099024
    106 C                    -0.329250
    107 H                     0.087175
    108 H                     0.102776
    109 H                     0.095470
    110 H                     0.107927
  ----------------------------------------
  Sum of atomic charges =     0.000000

                    Cartesian Multipole Moments
 -----------------------------------------------------------------
    Charge (ESU x 10^10)
                 0.0000
    Dipole Moment (Debye)
         X      -0.4354      Y      -0.5058      Z      -2.2808
       Tot       2.3764
    Quadrupole Moments (Debye-Ang)
        XX    -340.3436     XY       2.4778     YY    -443.0576
        XZ      -5.8409     YZ     -10.3023     ZZ    -443.4462

 Total job time:  91.30s(wall), 1015.92s(cpu)
        *  Thank you very much for using Q-Chem.  Have a nice day.  *
