 Q-Chem 4.4, Q-Chem, Inc., Pleasanton, CA (2016)
 Q-Chem 4.4.2 for Intel X86 Linux

User input:
--------------------------------------------------------------
$comment
SP
$end

$rem
MEM_STATIC 5000
MEM_TOTAL 20000
JOBTYPE SP
EXCHANGE B3LYP
BASIS 6-31g(d,p)
$end

$molecule
0 1
C           1.032000     14.113000     -5.145000
C           1.591000     14.373000     -6.355000
N           1.426000     14.759000     -4.002000
C           2.566000     15.417000     -6.437000
C           2.354000     15.714000     -4.001000
C           2.999000     16.093000     -5.256000
C           3.770000     17.369000     -5.344000
C           3.466000     18.288000     -6.376000
C           4.783000     17.726000     -4.473000
N           4.039000     19.573000     -6.398000
N           5.340000     16.887000     -3.607000
C           5.422000     18.934000     -4.557000
C           4.979000     19.928000     -5.442000
S           6.560000     17.661000     -2.843000
N           6.445000     19.036000     -3.664000
C           5.445000     21.307000     -5.612000
S           5.314000     22.187000     -7.117000
C           5.914000     22.148000     -4.607000
C           5.757000     23.693000     -6.408000
S           6.073000     21.945000     -2.817000
C           6.020000     23.505000     -5.053000
C           5.880000     24.954000     -7.059000
C           6.416000     23.627000     -2.769000
C           6.359000     24.344000     -3.966000
N           6.529000     25.963000     -6.483000
S           5.475000     25.186000     -8.705000
C           6.825000     26.906000     -7.405000
C           6.218000     26.728000     -8.615000
C          -0.156000     13.123000     -4.862000
H           1.307000     13.800000     -7.233000
H           2.993000     15.607000     -7.417000
H           2.609000     16.111000     -3.019000
H           2.748000     18.094000     -7.170000
H           6.659000     24.079000     -1.817000
H           6.586000     25.399000     -4.064000
H           7.486000     27.729000     -7.167000
H           6.293000     27.398000     -9.460000
H          -0.366000     12.542000     -5.769000
C          -1.453000     13.842000     -4.569000
H           0.111000     12.459000     -4.031000
H          -1.633000     14.481000     -5.442000
H          -1.327000     14.465000     -3.675000
C          -2.673000     12.944000     -4.403000
H          -2.776000     12.185000     -5.188000
C          -3.941000     13.882000     -4.317000
H          -2.756000     12.322000     -3.503000
H          -4.014000     14.392000     -5.286000
H          -3.876000     14.592000     -3.483000
C          -5.153000     13.021000     -4.231000
H          -5.251000     12.555000     -5.219000
C          -6.451000     13.767000     -3.891000
H          -4.971000     12.165000     -3.569000
H          -6.638000     14.594000     -4.586000
H          -6.241000     14.195000     -2.903000
H          -7.245000     13.010000     -3.855000
C           4.464000     13.625000     -0.728000
C           5.531000     14.471000     -0.757000
N           4.503000     12.507000     -1.471000
C           6.666000     14.200000     -1.511000
C           5.657000     12.203000     -2.164000
C           6.766000     13.002000     -2.324000
C           7.915000     12.550000     -3.140000
C           8.656000     13.553000     -3.763000
C           8.297000     11.199000     -3.407000
N           9.721000     13.297000     -4.599000
N           7.843000     10.111000     -2.802000
C           9.326000     10.971000     -4.282000
C          10.078000     12.015000     -4.868000
S           8.674000      8.875000     -3.353000
N           9.632000      9.607000     -4.466000
C          11.193000     11.807000     -5.809000
S          11.849000     10.268000     -6.390000
C          12.025000     12.787000     -6.294000
C          13.223000     11.013000     -7.208000
S          11.891000     14.536000     -6.131000
C          13.095000     12.369000     -7.080000
C          14.443000     10.355000     -7.501000
C          13.581000     14.616000     -6.811000
C          13.983000     13.435000     -7.324000
N          14.639000      9.251000     -6.806000
S          15.719000     10.837000     -8.560000
C          15.929000      8.800000     -7.010000
C          16.588000      9.469000     -7.999000
C           3.227000     13.790000      0.146000
H           5.518000     15.390000     -0.178000
H           7.478000     14.918000     -1.452000
H           5.522000     11.272000     -2.712000
H           8.302000     14.582000     -3.802000
H          14.055000     15.570000     -7.000000
H          14.937000     13.363000     -7.833000
H          16.360000      7.993000     -6.433000
H          17.530000      9.149000     -8.426000
H           3.283000     13.033000      0.938000
C           1.837000     13.800000     -0.549000
H           3.345000     14.778000      0.610000
H           1.922000     13.202000     -1.465000
H           1.549000     14.802000     -0.891000
C           0.711000     13.211000      0.300000
H           0.973000     12.305000      0.860000
C          -0.580000     12.886000     -0.531000
H           0.486000     13.993000      1.035000
H          -0.438000     12.114000     -1.298000
H          -0.817000     13.716000     -1.208000
C          -1.879000     12.639000      0.223000
H          -1.722000     12.069000      1.148000
C          -2.999000     12.040000     -0.678000
H          -2.207000     13.597000      0.643000
H          -3.485000     12.787000     -1.317000
H          -3.866000     11.739000     -0.077000
H          -2.734000     11.137000     -1.241000
$end

--------------------------------------------------------------

             Standard Nuclear Orientation (Angstroms)
    I     Atom           X                Y                Z
 ----------------------------------------------------------------
    1      C      -3.3629008747     3.5307702477     2.1490379388
    2      C      -2.8668461309     2.6800862088     3.0841568387
    3      N      -3.5419110715     3.1589166850     0.8418725791
    4      C      -2.6033537217     1.3288253986     2.6943479459
    5      C      -3.2815027104     1.9287431322     0.4036140761
    6      C      -2.7713238862     0.9251936838     1.3349019327
    7      C      -2.8011597849    -0.5212557314     0.9644226371
    8      C      -3.4017448333    -1.4471161824     1.8499061349
    9      C      -2.2717565641    -1.0344311311    -0.2054672034
   10      N      -3.6104996344    -2.7860676576     1.4708700152
   11      N      -1.4801193320    -0.3461701789    -1.0201655245
   12      C      -2.3755810418    -2.3604896911    -0.5301673318
   13      C      -3.1527397691    -3.2367285472     0.2416744782
   14      S      -0.9868954119    -1.3343883008    -2.2248759080
   15      N      -1.7042559985    -2.6617968328    -1.6759939734
   16      C      -3.4801423791    -4.6469919682     0.0143825638
   17      S      -3.8493175276    -5.7678160333     1.3043628446
   18      C      -3.6818493359    -5.2573817123    -1.2201236792
   19      C      -4.3875206168    -7.0035421519     0.2318497236
   20      S      -3.6923354066    -4.6204216063    -2.9126844213
   21      C      -4.2583212072    -6.5613861343    -1.0828150886
   22      C      -4.8695608219    -8.2991694272     0.5754166081
   23      C      -4.3151927125    -6.1547834993    -3.3675023603
   24      C      -4.5786966782    -7.0828916996    -2.3578846957
   25      N      -4.9511777223    -9.2648799506    -0.3366140200
   26      S      -5.0996357582    -8.7983319020     2.1956225665
   27      C      -5.0806512624   -10.4641575543     0.2732374633
   28      C      -5.3203910148   -10.3960912754     1.6156698946
   29      C      -3.8608996548     5.0008340404     2.3989232334
   30      H      -2.6726588978     3.0200063166     4.0973767748
   31      H      -2.2119886218     0.6691072111     3.4627451554
   32      H      -3.4201074521     1.7793272873    -0.6666296489
   33      H      -3.7837896452    -1.1858666172     2.8344803710
   34      H      -4.4890509273    -6.3528872887    -4.4163995000
   35      H      -4.9414881628    -8.0900376973    -2.5258051474
   36      H      -5.0050563515   -11.3855632751    -0.2890710883
   37      H      -5.4983112877   -11.2413317356     2.2656413869
   38      H      -3.5967492348     5.3030737004     3.4202878810
   39      C      -5.3671322930     5.1190791866     2.3509615295
   40      H      -3.3995458298     5.6731568331     1.6655197220
   41      H      -5.7367613258     4.4128845724     3.1042964781
   42      H      -5.7218906125     4.8185043649     1.3574614986
   43      C      -5.9246348953     6.4930315873     2.7028217988
   44      H      -5.4931538033     6.9278117989     3.6126048690
   45      C      -7.4950191564     6.3539556915     2.8008787600
   46      H      -5.7868362694     7.3193569784     1.9943227608
   47      H      -7.6929351491     5.6734707933     3.6388283785
   48      H      -7.9387543332     5.9926523009     1.8646950425
   49      C      -8.0544489700     7.6692166096     3.2189553092
   50      H      -7.7473266338     7.7984587497     4.2638841775
   51      C      -9.5825948402     7.7800456028     3.1219649306
   52      H      -7.5371696627     8.4887596384     2.7042948948
   53      H     -10.0838514926     6.9767073230     3.6745157216
   54      H      -9.7761185248     7.6284774758     2.0528514257
   55      H      -9.8427994598     8.7943447634     3.4510116886
   56      C      -0.8654901856     3.6368778575    -2.8787188200
   57      C      -0.4267316419     2.4207595575    -3.3071966148
   58      N      -0.1292735729     4.3120653923    -1.9811660962
   59      C       0.7693165317     1.8706136853    -2.8633607379
   60      C       1.0917036969     3.7985985755    -1.5939357583
   61      C       1.6090342966     2.5611175266    -1.9019807297
   62      C       2.9224762677     2.1343805343    -1.3698841896
   63      C       3.0892230228     0.7638851831    -1.1771226482
   64      C       4.0021842347     2.9823903485    -0.9729911798
   65      N       4.2304907192     0.2098876469    -0.6393013256
   66      N       4.1224311071     4.2799969714    -1.2130802088
   67      C       5.1039592468     2.4106776968    -0.3936066215
   68      C       5.2526828971     1.0124457256    -0.2464175236
   69      S       5.5541701350     4.7317812407    -0.6955163675
   70      N       6.1157042942     3.3310845291    -0.0512453762
   71      C       6.4246025398     0.3629709513     0.3673877129
   72      S       7.8773096427     1.1388383832     1.0186094889
   73      C       6.6600255634    -0.9900588631     0.4090449024
   74      C       8.7366807729    -0.3817186031     1.2664253716
   75      S       5.5880298209    -2.3161792444    -0.0333981586
   76      C       7.8852646500    -1.3978232018     0.9285999281
   77      C      10.1461198663    -0.5133277265     1.3245070453
   78      C       7.0475068123    -3.3984053395     0.1202689839
   79      C       8.0873205814    -2.7749607731     0.7115711048
   80      N      10.8033518288     0.5137605673     0.8211256948
   81      S      11.0987766657    -1.8439458129     1.8757615515
   82      C      12.1475859061     0.2053622385     0.7372077814
   83      C      12.4765694067    -0.9625218286     1.3599273508
   84      C      -2.1064936103     4.3597193574    -3.3873254127
   85      H      -1.0115767770     1.8469471644    -4.0204052137
   86      H       1.0520540672     0.9087818995    -3.2796396132
   87      H       1.5554275469     4.4625898651    -0.8663604988
   88      H       2.2484481891     0.0742518637    -1.2335280023
   89      H       6.9572525503    -4.4683843855    -0.0120639649
   90      H       8.9915872126    -3.3275822797     0.9380492058
   91      H      12.8578173750     0.8394476449     0.2239379128
   92      H      13.4922573669    -1.2802077957     1.5587906049
   93      H      -1.7654417504     5.1977167417    -4.0077228761
   94      C      -3.1711836458     4.8048786768    -2.3464155662
   95      H      -2.6031132144     3.6313172745    -4.0416673528
   96      H      -2.6510965529     4.9771597335    -1.3957770159
   97      H      -3.8999482795     4.0134692890    -2.1308110914
   98      C      -3.9120998746     6.0877412293    -2.7217884652
   99      H      -3.2870861861     6.8790464787    -3.1533830568
  100      C      -4.6956878276     6.7198427647    -1.5179178040
  101      H      -4.6219084055     5.7757815349    -3.4971767541
  102      H      -4.0558302494     7.0535398206    -0.6910770972
  103      H      -5.2427033220     5.9434583121    -0.9689194155
  104      C      -5.7505801030     7.7749687419    -1.8193103379
  105      H      -5.4443938693     8.4512238745    -2.6280766737
  106      C      -6.2351104728     8.5294550148    -0.5461321159
  107      H      -6.5961839055     7.2713368073    -2.3020701992
  108      H      -6.9502450036     7.9521862172     0.0520896976
  109      H      -6.8799485720     9.3755871771    -0.8139663738
  110      H      -5.4513260816     8.9743474001     0.0786524818
 ----------------------------------------------------------------

   10   -5663.5186636539      3.17E-06 Convergence criterion met
 Total energy in the final basis set = -5663.5186636539

                    Orbital Energies (a.u.)
 --------------------------------------------------------------

 Alpha MOs
 -- Occupied --
-88.994 -88.991 -88.933 -88.925 -88.924 -88.916 -88.914 -88.903
-14.389 -14.381 -14.379 -14.373 -14.352 -14.349 -14.340 -14.337
-14.326 -14.320 -10.266 -10.264 -10.264 -10.264 -10.256 -10.254
-10.253 -10.248 -10.243 -10.241 -10.238 -10.236 -10.235 -10.235
-10.233 -10.233 -10.228 -10.227 -10.226 -10.225 -10.225 -10.224
-10.224 -10.222 -10.222 -10.221 -10.220 -10.220 -10.217 -10.216
-10.215 -10.214 -10.206 -10.203 -10.200 -10.196 -10.193 -10.191
-10.182 -10.181 -10.175 -10.173 -10.173 -10.173 -10.172 -10.171
-10.170 -10.168 -10.168 -10.167  -8.050  -8.046  -7.994  -7.987
 -7.984  -7.975  -7.973  -7.962  -6.015  -6.011  -6.009  -6.007
 -6.006  -6.004  -5.958  -5.955  -5.951  -5.951  -5.949  -5.947
 -5.945  -5.944  -5.941  -5.940  -5.938  -5.936  -5.934  -5.932
 -5.930  -5.927  -5.923  -5.918  -1.045  -1.044  -0.975  -0.975
 -0.950  -0.941  -0.931  -0.929  -0.912  -0.909  -0.900  -0.900
 -0.848  -0.839  -0.833  -0.828  -0.814  -0.812  -0.810  -0.808
 -0.806  -0.799  -0.794  -0.792  -0.786  -0.780  -0.768  -0.767
 -0.749  -0.749  -0.740  -0.740  -0.724  -0.719  -0.708  -0.706
 -0.693  -0.692  -0.676  -0.674  -0.656  -0.651  -0.646  -0.642
 -0.639  -0.633  -0.625  -0.620  -0.612  -0.609  -0.599  -0.593
 -0.593  -0.588  -0.578  -0.578  -0.575  -0.574  -0.567  -0.566
 -0.552  -0.545  -0.540  -0.538  -0.524  -0.523  -0.519  -0.513
 -0.505  -0.504  -0.502  -0.500  -0.485  -0.483  -0.477  -0.475
 -0.475  -0.471  -0.470  -0.467  -0.461  -0.454  -0.448  -0.445
 -0.444  -0.443  -0.438  -0.436  -0.433  -0.432  -0.432  -0.429
 -0.427  -0.426  -0.424  -0.422  -0.419  -0.415  -0.414  -0.413
 -0.411  -0.411  -0.407  -0.403  -0.399  -0.399  -0.396  -0.394
 -0.392  -0.390  -0.389  -0.387  -0.385  -0.383  -0.381  -0.380
 -0.380  -0.377  -0.372  -0.367  -0.363  -0.362  -0.361  -0.353
 -0.350  -0.349  -0.348  -0.347  -0.346  -0.345  -0.340  -0.336
 -0.336  -0.332  -0.331  -0.329  -0.328  -0.325  -0.316  -0.312
 -0.311  -0.306  -0.304  -0.303  -0.302  -0.298  -0.297  -0.296
 -0.296  -0.295  -0.294  -0.291  -0.282  -0.281  -0.280  -0.278
 -0.277  -0.273  -0.269  -0.267  -0.253  -0.251  -0.247  -0.244
 -0.242  -0.239  -0.232  -0.229  -0.195  -0.190

          Ground-State Mulliken Net Atomic Charges

     Atom                 Charge (a.u.)
  ----------------------------------------
      1 C                     0.265116
      2 C                    -0.119472
      3 N                    -0.471395
      4 C                    -0.098952
      5 C                     0.109165
      6 C                     0.020132
      7 C                     0.025438
      8 C                     0.063356
      9 C                     0.247101
     10 N                    -0.527108
     11 N                    -0.558600
     12 C                     0.208562
     13 C                     0.281671
     14 S                     0.605099
     15 N                    -0.556881
     16 C                    -0.230605
     17 S                     0.329722
     18 C                    -0.115394
     19 C                    -0.212767
     20 S                     0.286405
     21 C                     0.136443
     22 C                     0.060254
     23 C                    -0.308753
     24 C                    -0.057368
     25 N                    -0.437588
     26 S                     0.273120
     27 C                     0.127897
     28 C                    -0.310496
     29 C                    -0.214892
     30 H                     0.094167
     31 H                     0.104993
     32 H                     0.115838
     33 H                     0.121622
     34 H                     0.125242
     35 H                     0.126959
     36 H                     0.113196
     37 H                     0.129610
     38 H                     0.082914
     39 C                    -0.163732
     40 H                     0.121074
     41 H                     0.088054
     42 H                     0.115802
     43 C                    -0.192729
     44 H                     0.085117
     45 C                    -0.164727
     46 H                     0.100951
     47 H                     0.091488
     48 H                     0.090430
     49 C                    -0.182641
     50 H                     0.087269
     51 C                    -0.313235
     52 H                     0.087228
     53 H                     0.103454
     54 H                     0.100983
     55 H                     0.101495
     56 C                     0.280746
     57 C                    -0.106568
     58 N                    -0.492082
     59 C                    -0.087997
     60 C                     0.053255
     61 C                     0.064594
     62 C                     0.048763
     63 C                     0.046121
     64 C                     0.257264
     65 N                    -0.543469
     66 N                    -0.538087
     67 C                     0.153425
     68 C                     0.329546
     69 S                     0.618858
     70 N                    -0.548761
     71 C                    -0.224767
     72 S                     0.356513
     73 C                    -0.117683
     74 C                    -0.231285
     75 S                     0.266322
     76 C                     0.144536
     77 C                     0.057898
     78 C                    -0.304656
     79 C                    -0.067971
     80 N                    -0.420136
     81 S                     0.281615
     82 C                     0.119807
     83 C                    -0.304047
     84 C                    -0.222770
     85 H                     0.079686
     86 H                     0.091420
     87 H                     0.107426
     88 H                     0.123810
     89 H                     0.121025
     90 H                     0.107033
     91 H                     0.118135
     92 H                     0.132280
     93 H                     0.120865
     94 C                    -0.181005
     95 H                     0.086435
     96 H                     0.135185
     97 H                     0.099976
     98 C                    -0.184123
     99 H                     0.095262
    100 C                    -0.182321
    101 H                     0.087202
    102 H                     0.094278
    103 H                     0.100454
    104 C                    -0.179389
    105 H                     0.089321
    106 C                    -0.330199
    107 H                     0.092165
    108 H                     0.113562
    109 H                     0.094681
    110 H                     0.107823
  ----------------------------------------
  Sum of atomic charges =     0.000000

                    Cartesian Multipole Moments
 -----------------------------------------------------------------
    Charge (ESU x 10^10)
                 0.0000
    Dipole Moment (Debye)
         X       1.8966      Y      -3.0148      Z       0.6404
       Tot       3.6189
    Quadrupole Moments (Debye-Ang)
        XX    -403.0568     XY      -5.4456     YY    -418.1541
        XZ       2.3033     YZ      -1.0956     ZZ    -425.5198

 Total job time:  96.66s(wall), 1063.13s(cpu)
        *  Thank you very much for using Q-Chem.  Have a nice day.  *
