 Q-Chem 4.4, Q-Chem, Inc., Pleasanton, CA (2016)
 Q-Chem 4.4.2 for Intel X86 Linux

User input:
--------------------------------------------------------------
$comment
SP
$end

$rem
MEM_STATIC 5000
MEM_TOTAL 20000
JOBTYPE SP
EXCHANGE B3LYP
BASIS 6-31g(d,p)
$end

$molecule
0 1
C           8.111000     18.327000     -7.223000
C           6.856000     17.759000     -7.459000
N           9.054000     17.483000     -6.760000
C           6.429000     16.479000     -7.091000
C           8.666000     16.236000     -6.415000
C           7.338000     15.606000     -6.576000
C           6.970000     14.180000     -6.374000
C           5.933000     13.913000     -5.547000
C           7.667000     13.161000     -6.971000
N           5.461000     12.693000     -5.328000
N           8.703000     13.276000     -7.830000
C           7.147000     11.816000     -6.867000
C           6.000000     11.634000     -5.971000
S           8.966000     11.698000     -8.381000
N           7.826000     10.901000     -7.625000
C           5.338000     10.314000     -5.740000
S           5.965000      8.753000     -6.273000
C           4.227000     10.074000     -4.926000
C           4.618000      7.831000     -5.506000
S           3.105000     11.272000     -4.325000
C           3.828000      8.714000     -4.870000
C           4.384000      6.489000     -5.478000
C           1.973000      9.895000     -3.995000
C           2.547000      8.632000     -4.221000
N           5.002000      5.858000     -6.411000
S           3.572000      5.504000     -4.246000
C           4.982000      4.496000     -6.197000
C           4.221000      4.070000     -5.182000
C           8.588000     19.778000     -7.482000
H           6.059000     18.416000     -7.795000
H           5.376000     16.255000     -7.237000
H           9.496000     15.677000     -5.985000
H           5.312000     14.687000     -5.098000
H           1.066000     10.091000     -3.439000
H           2.071000      7.682000     -4.003000
H           5.597000      3.869000     -6.829000
H           4.117000      3.103000     -4.709000
H           9.254000     19.902000     -8.345000
C           9.151000     20.386000     -6.143000
H           7.640000     20.284000     -7.704000
H          10.171000     20.025000     -5.964000
H           8.485000     20.145000     -5.304000
C           9.200000     21.944000     -6.140000
H           8.169000     22.313000     -6.204000
C           9.999000     22.634000     -7.277000
H           9.427000     22.388000     -5.163000
H           9.781000     22.060000     -8.186000
H          11.077000     22.496000     -7.129000
C           9.588000     24.145000     -7.367000
H          10.033000     24.534000     -8.291000
C           9.915000     25.048000     -6.085000
H           8.511000     24.285000     -7.524000
H          10.984000     25.236000     -5.923000
H           9.562000     24.518000     -5.192000
H           9.466000     26.049000     -6.075000
C           4.464000     13.625000     -0.728000
C           5.531000     14.471000     -0.757000
N           4.503000     12.507000     -1.471000
C           6.666000     14.200000     -1.511000
C           5.657000     12.203000     -2.164000
C           6.766000     13.002000     -2.324000
C           7.915000     12.550000     -3.140000
C           8.656000     13.553000     -3.763000
C           8.297000     11.199000     -3.407000
N           9.721000     13.297000     -4.599000
N           7.843000     10.111000     -2.802000
C           9.326000     10.971000     -4.282000
C          10.078000     12.015000     -4.868000
S           8.674000      8.875000     -3.353000
N           9.632000      9.607000     -4.466000
C          11.193000     11.807000     -5.809000
S          11.849000     10.268000     -6.390000
C          12.025000     12.787000     -6.294000
C          13.223000     11.013000     -7.208000
S          11.891000     14.536000     -6.131000
C          13.095000     12.369000     -7.080000
C          14.443000     10.355000     -7.501000
C          13.581000     14.616000     -6.811000
C          13.983000     13.435000     -7.324000
N          14.639000      9.251000     -6.806000
S          15.719000     10.837000     -8.560000
C          15.929000      8.800000     -7.010000
C          16.588000      9.469000     -7.999000
C           3.227000     13.790000      0.146000
H           5.518000     15.390000     -0.178000
H           7.478000     14.918000     -1.452000
H           5.522000     11.272000     -2.712000
H           8.302000     14.582000     -3.802000
H          14.055000     15.570000     -7.000000
H          14.937000     13.363000     -7.833000
H          16.360000      7.993000     -6.433000
H          17.530000      9.149000     -8.426000
H           3.283000     13.033000      0.938000
C           1.837000     13.800000     -0.549000
H           3.345000     14.778000      0.610000
H           1.922000     13.202000     -1.465000
H           1.549000     14.802000     -0.891000
C           0.711000     13.211000      0.300000
H           0.973000     12.305000      0.860000
C          -0.580000     12.886000     -0.531000
H           0.486000     13.993000      1.035000
H          -0.438000     12.114000     -1.298000
H          -0.817000     13.716000     -1.208000
C          -1.879000     12.639000      0.223000
H          -1.722000     12.069000      1.148000
C          -2.999000     12.040000     -0.678000
H          -2.207000     13.597000      0.643000
H          -3.485000     12.787000     -1.317000
H          -3.866000     11.739000     -0.077000
H          -2.734000     11.137000     -1.241000
$end

--------------------------------------------------------------

             Standard Nuclear Orientation (Angstroms)
    I     Atom           X                Y                Z
 ----------------------------------------------------------------
    1      C      -4.1745903358    -4.2491660805    -1.7156579279
    2      C      -2.9853103661    -4.3114346597    -2.4471500862
    3      N      -4.3003632400    -3.1847536009    -0.8988585341
    4      C      -1.8526868094    -3.5076882541    -2.2818969647
    5      C      -3.2233736701    -2.3853922836    -0.7385683269
    6      C      -1.9186634877    -2.4463526390    -1.4316918188
    7      C      -0.8131123633    -1.4534248081    -1.3922578999
    8      C       0.4206632625    -1.9040016477    -1.0676578124
    9      C      -1.0268437510    -0.1218990718    -1.6411295685
   10      N       1.5045384582    -1.1396418675    -1.0569954119
   11      N      -2.1911430617     0.4646165900    -1.9944120241
   12      C       0.1197378067     0.7514743327    -1.7543136127
   13      C       1.4182751217     0.1608571524    -1.4129616126
   14      S      -1.7583987177     2.0547116663    -2.3780576690
   15      N      -0.1910043577     2.0217104987    -2.1577604985
   16      C       2.7062557711     0.9171054888    -1.4695239710
   17      S       2.8540722814     2.6621521463    -1.6860913796
   18      C       3.9786816478     0.4111929141    -1.1875632378
   19      C       4.6515463003     2.6344304740    -1.5408307165
   20      S       4.4293224982    -1.2759704725    -1.1121210020
   21      C       5.0225227484     1.3656332169    -1.2942237511
   22      C       5.5481738797     3.6583839517    -1.6047232781
   23      C       6.1463786288    -0.7171310240    -1.2729616537
   24      C       6.2860345295     0.6809675945    -1.2337509110
   25      N       5.0742626220     4.6968270229    -2.1943147534
   26      S       7.1264858984     3.8358534401    -0.8142621770
   27      C       5.8804922457     5.7984332784    -2.0001564369
   28      C       7.0495467624     5.5728506797    -1.3892177917
   29      C      -5.3977475968    -5.1987732600    -1.7619560872
   30      H      -2.8300582296    -5.1754171431    -3.0868258186
   31      H      -0.9693938308    -3.7863565638    -2.8497336377
   32      H      -3.4228524328    -1.6099360881    -0.0002209071
   33      H       0.6524687167    -2.9580248333    -0.9206225934
   34      H       6.9412037134    -1.4394620070    -1.1437639918
   35      H       7.2307482042     1.2139524490    -1.2271768954
   36      H       5.5120746151     6.7651896604    -2.3170610712
   37      H       7.8038857332     6.2408827651    -0.9963566840
   38      H      -6.2812355019    -4.7952955624    -2.2722068776
   39      C      -5.6856399585    -5.7451912084    -0.3134743256
   40      H      -5.0061564445    -6.0315562786    -2.3595787219
   41      H      -6.2243197341    -4.9919091303     0.2740222362
   42      H      -4.7490496333    -6.0438053584     0.1755922876
   43      C      -6.5414865098    -7.0479181859    -0.2992229118
   44      H      -5.9582616696    -7.8387888647    -0.7866553227
   45      C      -7.9214382069    -7.0017221102    -1.0069440689
   46      H      -6.6092092772    -7.5344888498     0.6815199779
   47      H      -7.7685843737    -6.4153750089    -1.9213366445
   48      H      -8.6331499303    -6.4036312469    -0.4248910283
   49      C      -8.4283691582    -8.4629561921    -1.2676315610
   50      H      -9.3010876047    -8.3766533529    -1.9264458999
   51      C      -8.7082286016    -9.3601047824     0.0295442555
   52      H      -7.7216317575    -9.0602730920    -1.8574728680
   53      H      -9.5794122627    -9.0467421987     0.6187741934
   54      H      -7.8435887402    -9.2757429990     0.6990507899
   55      H      -8.8826572027   -10.4277915580    -0.1529978284
   56      C       3.3966318726    -3.4291776029     2.7113784586
   57      C       2.1143510084    -3.6341115988     3.1222359066
   58      N       3.6941639170    -2.2944786393     2.0575994864
   59      C       1.1128818138    -2.6953795337     2.9077048778
   60      C       2.7166386386    -1.3321700898     1.9066439110
   61      C       1.3806746701    -1.4480155327     2.2159368276
   62      C       0.4417996770    -0.3348647516     1.9517965511
   63      C      -0.8779245096    -0.6967358210     1.6860967195
   64      C       0.7622689537     1.0557328518     1.8746489772
   65      N      -1.8616697819     0.2141001196     1.3678513290
   66      N       1.8978015393     1.6306404973     2.2433384755
   67      C      -0.2219143172     1.9342605747     1.5058369256
   68      C      -1.5587789517     1.5345328871     1.2781381664
   69      S       1.7102954384     3.2003914152     2.0930669954
   70      N       0.1933548439     3.2812755802     1.4728202828
   71      C      -2.6432510577     2.4516764565     0.8847707500
   72      S      -2.5462750166     4.2024844802     0.6364062763
   73      C      -3.9731951161     2.1220736256     0.7824977063
   74      C      -4.2894919069     4.4049721108     0.4569107807
   75      S      -4.7315559960     0.5341416952     0.8654854187
   76      C      -4.8581830269     3.1620010193     0.5127433489
   77      C      -4.9922433594     5.6110310113     0.6993470087
   78      C      -6.3220441823     1.4222439269     0.9462428036
   79      C      -6.1924725999     2.7323877940     0.6525282270
   80      N      -4.3209103168     6.4892237852     1.4193097838
   81      S      -6.6055106635     6.0440954886     0.2613918008
   82      C      -5.1556222854     7.5327666678     1.7705805933
   83      C      -6.3642036226     7.4972588202     1.1396817550
   84      C       4.5748859020    -4.3529808886     2.9934687479
   85      H       1.8438951772    -4.5507071604     3.6386439040
   86      H       0.1264115902    -2.9324517182     3.2937389141
   87      H       3.1190197812    -0.4827593893     1.3572070376
   88      H      -1.1578809878    -1.7321006157     1.4981549408
   89      H      -7.2571670082     0.8784622813     0.9652117894
   90      H      -7.0724847397     3.3611828293     0.5848788560
   91      H      -4.8639091061     8.2964629643     2.4788251751
   92      H      -7.0758810024     8.3130999146     1.1430899687
   93      H       5.2063296200    -3.8582253957     3.7417633645
   94      C       5.4045324690    -4.8693261990     1.7850403907
   95      H       4.1263513981    -5.2403237831     3.4590902533
   96      H       5.3325714908    -4.1166564721     0.9899335426
   97      H       4.9816143690    -5.7829802387     1.3488196020
   98      C       6.8842685138    -5.0932612324     2.0946083777
   99      H       7.3531334661    -4.3220814297     2.7179280134
  100      C       7.7656536948    -5.2472481638     0.8053003510
  101      H       6.9047884267    -6.0289565409     2.6659464762
  102      H       7.7930540713    -4.3524941275     0.1703976546
  103      H       7.2764282596    -5.9158772651     0.0862790728
  104      C       9.1665718104    -5.8234434953     0.9548107968
  105      H       9.6679143972    -5.4691940434     1.8649409724
  106      C      10.0348788096    -5.6473232563    -0.3258244426
  107      H       9.0642972670    -6.8879691827     1.1957941543
  108      H       9.7956719833    -6.3724085940    -1.1129440950
  109      H      11.0756478410    -5.9377905602    -0.1362998567
  110      H      10.1070907037    -4.6278385984    -0.7233662325
 ----------------------------------------------------------------

    9   -5663.4863481286      7.92E-06 Convergence criterion met
 Total energy in the final basis set = -5663.4863481286

                    Orbital Energies (a.u.)
 --------------------------------------------------------------

 Alpha MOs
 -- Occupied --
-88.987 -88.983 -88.932 -88.923 -88.920 -88.916 -88.905 -88.901
-14.387 -14.384 -14.375 -14.375 -14.348 -14.346 -14.340 -14.333
-14.322 -14.318 -10.269 -10.265 -10.262 -10.259 -10.258 -10.252
-10.250 -10.249 -10.240 -10.236 -10.236 -10.234 -10.230 -10.230
-10.228 -10.227 -10.227 -10.226 -10.226 -10.225 -10.225 -10.223
-10.223 -10.220 -10.220 -10.219 -10.212 -10.212 -10.212 -10.211
-10.210 -10.203 -10.202 -10.202 -10.202 -10.194 -10.192 -10.191
-10.189 -10.186 -10.185 -10.182 -10.180 -10.180 -10.180 -10.178
-10.176 -10.175 -10.175 -10.173  -8.042  -8.038  -7.994  -7.983
 -7.977  -7.975  -7.964  -7.960  -6.007  -6.003  -6.001  -6.000
 -5.997  -5.996  -5.958  -5.954  -5.951  -5.947  -5.944  -5.942
 -5.939  -5.939  -5.938  -5.935  -5.934  -5.931  -5.928  -5.925
 -5.924  -5.921  -5.920  -5.916  -1.041  -1.028  -0.976  -0.975
 -0.960  -0.950  -0.930  -0.928  -0.911  -0.907  -0.899  -0.897
 -0.838  -0.834  -0.832  -0.831  -0.813  -0.809  -0.807  -0.801
 -0.798  -0.795  -0.794  -0.793  -0.780  -0.774  -0.768  -0.765
 -0.750  -0.744  -0.740  -0.733  -0.718  -0.713  -0.709  -0.704
 -0.694  -0.690  -0.676  -0.673  -0.657  -0.655  -0.641  -0.640
 -0.639  -0.635  -0.619  -0.618  -0.612  -0.610  -0.600  -0.598
 -0.592  -0.590  -0.584  -0.580  -0.575  -0.574  -0.573  -0.560
 -0.544  -0.543  -0.538  -0.534  -0.523  -0.520  -0.517  -0.516
 -0.505  -0.502  -0.498  -0.495  -0.486  -0.480  -0.478  -0.476
 -0.471  -0.465  -0.462  -0.459  -0.456  -0.449  -0.447  -0.447
 -0.443  -0.441  -0.439  -0.437  -0.434  -0.432  -0.431  -0.430
 -0.427  -0.426  -0.419  -0.419  -0.416  -0.414  -0.413  -0.407
 -0.406  -0.402  -0.401  -0.397  -0.396  -0.395  -0.394  -0.392
 -0.391  -0.390  -0.389  -0.386  -0.386  -0.382  -0.381  -0.380
 -0.378  -0.371  -0.369  -0.368  -0.363  -0.361  -0.356  -0.354
 -0.350  -0.349  -0.347  -0.345  -0.344  -0.342  -0.338  -0.337
 -0.333  -0.332  -0.330  -0.327  -0.327  -0.325  -0.319  -0.314
 -0.312  -0.309  -0.307  -0.306  -0.304  -0.303  -0.302  -0.295
 -0.294  -0.292  -0.289  -0.286  -0.285  -0.280  -0.278  -0.275
 -0.275  -0.271  -0.266  -0.260  -0.252  -0.249  -0.244  -0.241
 -0.238  -0.237  -0.232  -0.231  -0.195  -0.193

          Ground-State Mulliken Net Atomic Charges

     Atom                 Charge (a.u.)
  ----------------------------------------
      1 C                     0.259699
      2 C                    -0.132183
      3 N                    -0.471501
      4 C                    -0.064982
      5 C                     0.077495
      6 C                     0.011470
      7 C                     0.025647
      8 C                     0.053337
      9 C                     0.278114
     10 N                    -0.518069
     11 N                    -0.572467
     12 C                     0.169997
     13 C                     0.307441
     14 S                     0.626068
     15 N                    -0.534774
     16 C                    -0.217968
     17 S                     0.337871
     18 C                    -0.156316
     19 C                    -0.201037
     20 S                     0.318491
     21 C                     0.160317
     22 C                     0.053367
     23 C                    -0.308754
     24 C                    -0.082031
     25 N                    -0.429464
     26 S                     0.234361
     27 C                     0.132004
     28 C                    -0.302319
     29 C                    -0.215197
     30 H                     0.068968
     31 H                     0.099573
     32 H                     0.122886
     33 H                     0.116017
     34 H                     0.129496
     35 H                     0.108295
     36 H                     0.116486
     37 H                     0.135256
     38 H                     0.123221
     39 C                    -0.173024
     40 H                     0.095936
     41 H                     0.117602
     42 H                     0.096142
     43 C                    -0.186908
     44 H                     0.084231
     45 C                    -0.174045
     46 H                     0.089959
     47 H                     0.092934
     48 H                     0.094582
     49 C                    -0.180586
     50 H                     0.089324
     51 C                    -0.328369
     52 H                     0.097498
     53 H                     0.103972
     54 H                     0.106582
     55 H                     0.102999
     56 C                     0.276068
     57 C                    -0.117691
     58 N                    -0.498006
     59 C                    -0.093222
     60 C                     0.073878
     61 C                     0.060344
     62 C                     0.056104
     63 C                     0.042238
     64 C                     0.256185
     65 N                    -0.550466
     66 N                    -0.545092
     67 C                     0.161741
     68 C                     0.316150
     69 S                     0.633275
     70 N                    -0.551311
     71 C                    -0.241601
     72 S                     0.352337
     73 C                    -0.116439
     74 C                    -0.230211
     75 S                     0.307604
     76 C                     0.143371
     77 C                     0.056681
     78 C                    -0.315640
     79 C                    -0.066735
     80 N                    -0.419232
     81 S                     0.282282
     82 C                     0.119967
     83 C                    -0.304092
     84 C                    -0.217892
     85 H                     0.082175
     86 H                     0.097047
     87 H                     0.117807
     88 H                     0.119957
     89 H                     0.122531
     90 H                     0.106648
     91 H                     0.118201
     92 H                     0.132240
     93 H                     0.123337
     94 C                    -0.186587
     95 H                     0.089951
     96 H                     0.123760
     97 H                     0.094374
     98 C                    -0.179907
     99 H                     0.099038
    100 C                    -0.174602
    101 H                     0.091226
    102 H                     0.086620
    103 H                     0.087741
    104 C                    -0.177379
    105 H                     0.091385
    106 C                    -0.329566
    107 H                     0.094092
    108 H                     0.106742
    109 H                     0.099417
    110 H                     0.105515
  ----------------------------------------
  Sum of atomic charges =     0.000000

                    Cartesian Multipole Moments
 -----------------------------------------------------------------
    Charge (ESU x 10^10)
                 0.0000
    Dipole Moment (Debye)
         X      -0.3674      Y       0.2514      Z       0.8531
       Tot       0.9622
    Quadrupole Moments (Debye-Ang)
        XX    -401.7506     XY     -11.1134     YY    -393.3907
        XZ       2.7573     YZ       5.2755     ZZ    -448.5769

 Total job time:  109.17s(wall), 1158.70s(cpu)
        *  Thank you very much for using Q-Chem.  Have a nice day.  *
