 Q-Chem 4.4, Q-Chem, Inc., Pleasanton, CA (2016)
 Q-Chem 4.4.2 for Intel X86 Linux

User input:
--------------------------------------------------------------
$comment
SP
$end

$rem
MEM_STATIC 5000
MEM_TOTAL 20000
JOBTYPE SP
EXCHANGE B3LYP
BASIS 6-31g(d,p)
$end

$molecule
0 1
C         -12.661000     21.943000    -13.238000
C         -12.811000     20.987000    -14.187000
N         -11.678000     21.933000    -12.368000
C         -11.905000     19.897000    -14.191000
C         -10.851000     20.883000    -12.392000
C         -10.831000     19.854000    -13.267000
C          -9.748000     18.824000    -13.217000
C          -8.510000     19.041000    -12.603000
C          -9.915000     17.429000    -13.557000
N          -7.539000     18.145000    -12.479000
N         -11.028000     16.863000    -13.983000
C          -8.869000     16.497000    -13.422000
C          -7.680000     16.905000    -12.894000
S         -10.722000     15.322000    -14.333000
N          -9.130000     15.272000    -13.932000
C          -6.508000     16.044000    -12.838000
S          -6.225000     14.465000    -13.581000
C          -5.313000     16.369000    -12.204000
C          -4.562000     14.329000    -13.099000
S          -4.842000     17.764000    -11.258000
C          -4.304000     15.432000    -12.343000
C          -3.748000     13.170000    -13.167000
C          -3.254000     17.069000    -11.050000
C          -3.160000     15.778000    -11.564000
N          -4.086000     12.258000    -14.063000
S          -2.288000     12.763000    -12.215000
C          -3.185000     11.209000    -14.056000
C          -2.197000     11.292000    -13.118000
C         -13.451000     23.238000    -13.377000
H         -13.602000     21.057000    -14.928000
H         -12.022000     19.219000    -15.032000
H         -10.048000     20.885000    -11.656000
H          -8.216000     20.026000    -12.245000
H          -2.505000     17.532000    -10.422000
H          -2.256000     15.183000    -11.501000
H          -3.314000     10.256000    -14.552000
H          -1.304000     10.690000    -13.012000
H         -12.707000     23.975000    -13.050000
C         -14.760000     23.367000    -12.625000
H         -13.662000     23.623000    -14.382000
H         -15.060000     24.421000    -12.675000
H         -14.624000     23.176000    -11.554000
C         -15.937000     22.552000    -13.177000
H         -16.036000     22.799000    -14.242000
C         -17.292000     22.930000    -12.632000
H         -15.645000     21.514000    -12.979000
H         -17.533000     23.965000    -12.905000
H         -17.333000     22.829000    -11.540000
C         -18.373000     21.969000    -13.217000
H         -18.645000     22.217000    -14.250000
C         -19.693000     21.872000    -12.424000
H         -17.923000     20.971000    -13.281000
H         -19.512000     21.319000    -11.494000
H         -20.384000     21.276000    -13.032000
H         -20.037000     22.900000    -12.257000
C         -14.052000     10.853000    -15.150000
C         -13.954000     12.076000    -14.470000
N         -13.168000      9.843000    -15.013000
C         -12.844000     12.302000    -13.592000
C         -12.109000     10.004000    -14.145000
C         -11.913000     11.248000    -13.460000
C         -10.725000     11.497000    -12.619000
C         -10.782000     12.360000    -11.516000
C          -9.388000     11.152000    -12.974000
N          -9.668000     12.751000    -10.855000
N          -9.151000     10.418000    -14.086000
C          -8.290000     11.571000    -12.284000
C          -8.419000     12.446000    -11.191000
S          -7.478000     10.448000    -14.305000
N          -7.080000     11.163000    -12.905000
C          -7.281000     12.932000    -10.499000
S          -5.825000     12.049000    -10.336000
C          -7.220000     14.140000     -9.842000
C          -5.089000     13.314000     -9.362000
S          -8.339000     15.502000     -9.850000
C          -6.018000     14.283000     -9.170000
C          -3.810000     13.310000     -8.817000
C          -7.252000     16.190000     -8.648000
C          -6.071000     15.486000     -8.457000
N          -3.136000     12.116000     -8.759000
S          -2.824000     14.652000     -8.345000
C          -1.874000     12.185000     -8.246000
C          -1.524000     13.511000     -7.994000
C         -15.282000     10.654000    -16.029000
H         -14.630000     12.925000    -14.509000
H         -12.767000     13.248000    -13.063000
H         -11.329000      9.244000    -14.132000
H         -11.760000     12.555000    -11.077000
H          -7.393000     17.205000     -8.299000
H          -5.321000     15.990000     -7.859000
H          -1.221000     11.325000     -8.179000
H          -0.512000     13.805000     -7.749000
H         -16.194000     10.869000    -15.459000
C         -15.433000      9.398000    -16.883000
H         -15.264000     11.467000    -16.765000
H         -15.586000      8.573000    -16.177000
H         -14.503000      9.081000    -17.371000
C         -16.537000      9.440000    -17.925000
H         -17.462000      9.526000    -17.342000
C         -16.675000      8.273000    -18.918000
H         -16.464000     10.355000    -18.527000
H         -16.693000      7.370000    -18.295000
H         -15.819000      8.298000    -19.604000
C         -17.946000      8.278000    -19.795000
H         -18.846000      8.266000    -19.168000
C         -18.034000      7.070000    -20.708000
H         -17.942000      9.251000    -20.300000
H         -17.205000      7.029000    -21.426000
H         -18.934000      7.241000    -21.311000
H         -18.177000      6.129000    -20.164000
$end

--------------------------------------------------------------

             Standard Nuclear Orientation (Angstroms)
    I     Atom           X                Y                Z
 ----------------------------------------------------------------
    1      C      -4.6735670509    -6.4731481398     0.9859174380
    2      C      -4.9831197352    -5.2606379931     1.5065260046
    3      N      -3.4601591127    -6.7922042746     0.5997395537
    4      C      -3.9642867639    -4.2773256790     1.5699946544
    5      C      -2.5279072335    -5.8360753754     0.6608047797
    6      C      -2.6424317770    -4.5871854420     1.1628247623
    7      C      -1.4520792743    -3.6876553721     1.2637978904
    8      C      -0.1339101379    -4.1557996092     1.2634798629
    9      C      -1.4861787927    -2.2493876476     1.1233088322
   10      N       0.9566469067    -3.4002041121     1.2916539162
   11      N      -2.5628818348    -1.5165575298     0.9129007106
   12      C      -0.3165918849    -1.4673481759     1.1613315877
   13      C       0.8932507193    -2.0867450307     1.2690228564
   14      S      -2.1405993173     0.0366059726     0.9262277687
   15      N      -0.5265165109    -0.1315184177     1.1796757584
   16      C       2.1384935308    -1.3542747546     1.4448029315
   17      S       2.4070223259     0.3596182376     1.7851587711
   18      C       3.4056489865    -1.9286361728     1.4391449765
   19      C       4.1298363939     0.2435663489     1.9717938328
   20      S       3.9337684629    -3.5743229275     1.1642142146
   21      C       4.4450715090    -1.0537266638     1.7027833100
   22      C       5.0532962555     1.3175483163     2.0372584607
   23      C       5.5867173404    -3.0703198191     1.4127577219
   24      C       5.7130706176    -1.6906580653     1.5551701317
   25      N       4.5821177759     2.4822916506     2.4497724672
   26      S       6.8024828867     1.3221525868     1.6579460167
   27      C       5.5932009731     3.4235735068     2.5126233654
   28      C       6.8192942147     2.9947410704     2.0934872248
   29      C      -5.6716308545    -7.6123647128     1.1487063930
   30      H      -5.9846649072    -5.0497617959     1.8699823264
   31      H      -4.2530533080    -3.3640607967     2.0830396211
   32      H      -1.5294775723    -6.1142936645     0.3257797128
   33      H       0.0937911968    -5.2182936264     1.3273826456
   34      H       6.4180220248    -3.7484895440     1.2757455109
   35      H       6.6686962131    -1.1974047717     1.6918848332
   36      H       5.4628229887     4.4897945786     2.6431615109
   37      H       7.7812350998     3.4817433582     2.1861560180
   38      H      -4.9985925391    -8.4554045055     1.3485496661
   39      C      -6.6309128090    -7.8971338973     0.0110286515
   40      H      -6.2876044143    -7.6497520438     2.0553208431
   41      H      -7.1055850766    -8.8634669977     0.2215104258
   42      H      -6.0938672729    -8.0601149120    -0.9307979148
   43      C      -7.7682580592    -6.8851457431    -0.1802401578
   44      H      -8.2787918441    -6.7792042372     0.7857653556
   45      C      -8.8859190510    -7.3383052035    -1.0865593129
   46      H      -7.2512909211    -5.9800055790    -0.5199139151
   47      H      -9.3820404378    -8.2199181045    -0.6617566971
   48      H      -8.5196241138    -7.5832183436    -2.0916421815
   49      C      -9.9215986200    -6.1829853578    -1.2506046856
   50      H     -10.5800122183    -6.0783069130    -0.3799090116
   51      C     -10.8376274062    -6.2658228480    -2.4894296180
   52      H      -9.3590207402    -5.2423640813    -1.2871798601
   53      H     -10.2469073558    -6.0439738450    -3.3868162917
   54      H     -11.5856694859    -5.4711484687    -2.3831908399
   55      H     -11.2714500036    -7.2731876573    -2.4942353336
   56      C      -4.7228837428     4.7159950241    -0.8523883367
   57      C      -4.6022712232     3.3378439679    -1.0845203821
   58      N      -3.6881059171     5.5804452621    -0.9001966768
   59      C      -3.3098490321     2.7854633427    -1.3648425626
   60      C      -2.4349346789     5.0956777260    -1.2090466137
   61      C      -2.2260711518     3.6905397297    -1.4017646419
   62      C      -0.8789977537     3.1235920979    -1.6129272397
   63      C      -0.6892280052     1.9625053511    -2.3748275016
   64      C       0.2837130521     3.4868196882    -0.8721247696
   65      N       0.5016788015     1.3216715588    -2.4180828900
   66      N       0.2340544141     4.5183465670     0.0024924713
   67      C       1.4653654872     2.8112420876    -0.9396334956
   68      C       1.5833428876     1.6459742249    -1.7175455352
   69      S       1.6893360984     4.4645559391     0.8551657895
   70      N       2.4279781857     3.3248601808    -0.0309100795
   71      C       2.7909578513     0.9040193929    -1.7532264389
   72      S       4.3389449408     1.6077567259    -1.5669907369
   73      C       2.8719918689    -0.4506105738    -1.9835417473
   74      C       5.1429372275     0.0615716813    -1.7983026702
   75      S       1.6063443822    -1.6759540680    -2.0463012925
   76      C       4.1903220229    -0.8648114302    -2.0688661613
   77      C       6.5123575828    -0.1777600500    -1.7812670313
   78      C       2.9129179394    -2.7666473703    -2.4968239446
   79      C       4.1872430983    -2.2258749818    -2.3942636548
   80      N       7.3577434823     0.8976999826    -1.8907403117
   81      S       7.3552028933    -1.6533350928    -1.4522775545
   82      C       8.6876575659     0.6001895002    -1.8325162350
   83      C       8.8706921076    -0.7553449085    -1.5617676003
   84      C      -6.1306163392     5.2498528547    -0.6106720693
   85      H      -5.3834634185     2.5834991152    -1.0852932333
   86      H      -3.2143872534     1.7184387169    -1.5465882552
   87      H      -1.5826404778     5.7679873792    -1.1209368814
   88      H      -1.4663876655     1.6948583496    -3.0901022355
   89      H       2.7323837048    -3.8302707934    -2.5863761860
   90      H       5.0017976566    -2.9335367549    -2.4934386835
   91      H       9.4595103715     1.3574602434    -1.8683250044
   92      H       9.8372199921    -1.1678644256    -1.3043642269
   93      H      -6.8041599742     4.9183970175    -1.4102625893
   94      C      -6.3558836001     6.7169059757    -0.2547748915
   95      H      -6.5144051316     4.7094692689     0.2632162206
   96      H      -6.1047580067     7.2856799795    -1.1580478675
   97      H      -5.6192267493     7.1182662404     0.4521760418
   98      C      -7.7469235138     7.0664592917     0.2443888467
   99      H      -8.4056402503     6.8539104816    -0.6063903634
  100      C      -8.0247521650     8.4920850901     0.7517194329
  101      H      -8.0502420971     6.3842291552     1.0490738024
  102      H      -7.6655002238     9.1532526371    -0.0468151735
  103      H      -7.4850147217     8.6356644966     1.6961904204
  104      C      -9.5045351298     8.8342832497     1.0305344190
  105      H     -10.1078451541     8.6993879105     0.1243924533
  106      C      -9.7010271833    10.2708290068     1.4758479721
  107      H      -9.8469120651     8.0705039966     1.7384816534
  108      H      -9.1860949094    10.4885279049     2.4202514574
  109      H     -10.7712779683    10.3487780371     1.7024251244
  110      H      -9.4781246491    10.9998538906     0.6880007921
 ----------------------------------------------------------------

   10   -5663.5113868821      3.61E-06 Convergence criterion met
 Total energy in the final basis set = -5663.5113868821

                    Orbital Energies (a.u.)
 --------------------------------------------------------------

 Alpha MOs
 -- Occupied --
-88.990 -88.984 -88.931 -88.924 -88.920 -88.919 -88.912 -88.909
-14.387 -14.381 -14.379 -14.372 -14.344 -14.342 -14.340 -14.335
-14.333 -14.328 -10.266 -10.263 -10.257 -10.255 -10.254 -10.248
-10.246 -10.245 -10.239 -10.236 -10.236 -10.235 -10.233 -10.231
-10.230 -10.230 -10.229 -10.228 -10.227 -10.226 -10.224 -10.224
-10.223 -10.223 -10.223 -10.222 -10.221 -10.219 -10.216 -10.216
-10.216 -10.213 -10.203 -10.201 -10.200 -10.199 -10.198 -10.195
-10.186 -10.180 -10.178 -10.177 -10.177 -10.176 -10.176 -10.173
-10.173 -10.172 -10.171 -10.171  -8.045  -8.039  -7.991  -7.984
 -7.979  -7.978  -7.972  -7.969  -6.011  -6.005  -6.004  -6.003
 -5.998  -5.997  -5.955  -5.951  -5.948  -5.948  -5.945  -5.943
 -5.943  -5.941  -5.939  -5.939  -5.936  -5.935  -5.935  -5.933
 -5.933  -5.929  -5.928  -5.925  -1.046  -1.017  -0.973  -0.964
 -0.957  -0.955  -0.953  -0.929  -0.920  -0.917  -0.908  -0.885
 -0.849  -0.846  -0.837  -0.826  -0.814  -0.811  -0.810  -0.804
 -0.803  -0.800  -0.799  -0.793  -0.789  -0.783  -0.773  -0.768
 -0.754  -0.752  -0.744  -0.740  -0.724  -0.721  -0.716  -0.712
 -0.700  -0.697  -0.681  -0.672  -0.657  -0.654  -0.652  -0.642
 -0.639  -0.633  -0.631  -0.625  -0.613  -0.609  -0.599  -0.597
 -0.593  -0.591  -0.580  -0.576  -0.575  -0.573  -0.568  -0.564
 -0.547  -0.545  -0.543  -0.539  -0.527  -0.520  -0.517  -0.513
 -0.512  -0.507  -0.500  -0.495  -0.494  -0.484  -0.480  -0.478
 -0.476  -0.476  -0.473  -0.472  -0.464  -0.458  -0.453  -0.449
 -0.449  -0.446  -0.444  -0.439  -0.437  -0.435  -0.430  -0.429
 -0.428  -0.425  -0.423  -0.420  -0.420  -0.419  -0.416  -0.414
 -0.413  -0.412  -0.411  -0.406  -0.404  -0.401  -0.400  -0.397
 -0.395  -0.393  -0.393  -0.390  -0.389  -0.388  -0.385  -0.379
 -0.377  -0.372  -0.371  -0.368  -0.365  -0.362  -0.361  -0.357
 -0.356  -0.356  -0.351  -0.347  -0.346  -0.345  -0.338  -0.335
 -0.333  -0.332  -0.331  -0.327  -0.324  -0.323  -0.322  -0.317
 -0.314  -0.310  -0.308  -0.306  -0.303  -0.302  -0.300  -0.299
 -0.293  -0.290  -0.287  -0.286  -0.285  -0.285  -0.280  -0.275
 -0.271  -0.266  -0.265  -0.263  -0.258  -0.253  -0.252  -0.247
 -0.245  -0.237  -0.234  -0.230  -0.195  -0.190

          Ground-State Mulliken Net Atomic Charges

     Atom                 Charge (a.u.)
  ----------------------------------------
      1 C                     0.281132
      2 C                    -0.106240
      3 N                    -0.482261
      4 C                    -0.088263
      5 C                     0.050503
      6 C                     0.093551
      7 C                     0.057271
      8 C                     0.035219
      9 C                     0.227673
     10 N                    -0.539009
     11 N                    -0.552229
     12 C                     0.214901
     13 C                     0.341273
     14 S                     0.599619
     15 N                    -0.577440
     16 C                    -0.234694
     17 S                     0.359166
     18 C                    -0.111790
     19 C                    -0.218982
     20 S                     0.283544
     21 C                     0.142455
     22 C                     0.068522
     23 C                    -0.311189
     24 C                    -0.087545
     25 N                    -0.439687
     26 S                     0.286908
     27 C                     0.117077
     28 C                    -0.302706
     29 C                    -0.238990
     30 H                     0.096761
     31 H                     0.106230
     32 H                     0.088161
     33 H                     0.114019
     34 H                     0.125006
     35 H                     0.111935
     36 H                     0.113351
     37 H                     0.134453
     38 H                     0.115929
     39 C                    -0.184267
     40 H                     0.098085
     41 H                     0.086590
     42 H                     0.100640
     43 C                    -0.166451
     44 H                     0.086557
     45 C                    -0.170908
     46 H                     0.096161
     47 H                     0.092071
     48 H                     0.091533
     49 C                    -0.183032
     50 H                     0.089924
     51 C                    -0.316205
     52 H                     0.090694
     53 H                     0.104265
     54 H                     0.100804
     55 H                     0.104507
     56 C                     0.292111
     57 C                    -0.118602
     58 N                    -0.490784
     59 C                    -0.087731
     60 C                     0.085190
     61 C                     0.035734
     62 C                     0.026062
     63 C                     0.037552
     64 C                     0.248924
     65 N                    -0.538517
     66 N                    -0.585229
     67 C                     0.176417
     68 C                     0.315455
     69 S                     0.621279
     70 N                    -0.541016
     71 C                    -0.201393
     72 S                     0.371704
     73 C                    -0.110368
     74 C                    -0.192833
     75 S                     0.273643
     76 C                     0.164257
     77 C                     0.023491
     78 C                    -0.281308
     79 C                    -0.104953
     80 N                    -0.440632
     81 S                     0.281228
     82 C                     0.134971
     83 C                    -0.323069
     84 C                    -0.243077
     85 H                     0.090929
     86 H                     0.107368
     87 H                     0.133078
     88 H                     0.115614
     89 H                     0.123734
     90 H                     0.110176
     91 H                     0.120442
     92 H                     0.122210
     93 H                     0.112576
     94 C                    -0.173307
     95 H                     0.109198
     96 H                     0.099678
     97 H                     0.106369
     98 C                    -0.178480
     99 H                     0.083867
    100 C                    -0.167191
    101 H                     0.080390
    102 H                     0.089129
    103 H                     0.090249
    104 C                    -0.175570
    105 H                     0.090522
    106 C                    -0.313338
    107 H                     0.089969
    108 H                     0.102788
    109 H                     0.098918
    110 H                     0.107576
  ----------------------------------------
  Sum of atomic charges =     0.000000

                    Cartesian Multipole Moments
 -----------------------------------------------------------------
    Charge (ESU x 10^10)
                 0.0000
    Dipole Moment (Debye)
         X       1.3747      Y      -1.2119      Z       1.3736
       Tot       2.2903
    Quadrupole Moments (Debye-Ang)
        XX    -373.9016     XY       4.0738     YY    -454.6505
        XZ       1.1188     YZ       4.7581     ZZ    -455.7492

 Total job time:  116.70s(wall), 1240.96s(cpu)
        *  Thank you very much for using Q-Chem.  Have a nice day.  *
