 Q-Chem 4.4, Q-Chem, Inc., Pleasanton, CA (2016)
 Q-Chem 4.4.2 for Intel X86 Linux

User input:
--------------------------------------------------------------
$comment
SP
$end

$rem
MEM_STATIC 5000
MEM_TOTAL 20000
JOBTYPE SP
EXCHANGE B3LYP
BASIS 6-31g(d,p)
$end

$molecule
0 1
C           1.032000     14.113000     -5.145000
C           1.591000     14.373000     -6.355000
N           1.426000     14.759000     -4.002000
C           2.566000     15.417000     -6.437000
C           2.354000     15.714000     -4.001000
C           2.999000     16.093000     -5.256000
C           3.770000     17.369000     -5.344000
C           3.466000     18.288000     -6.376000
C           4.783000     17.726000     -4.473000
N           4.039000     19.573000     -6.398000
N           5.340000     16.887000     -3.607000
C           5.422000     18.934000     -4.557000
C           4.979000     19.928000     -5.442000
S           6.560000     17.661000     -2.843000
N           6.445000     19.036000     -3.664000
C           5.445000     21.307000     -5.612000
S           5.314000     22.187000     -7.117000
C           5.914000     22.148000     -4.607000
C           5.757000     23.693000     -6.408000
S           6.073000     21.945000     -2.817000
C           6.020000     23.505000     -5.053000
C           5.880000     24.954000     -7.059000
C           6.416000     23.627000     -2.769000
C           6.359000     24.344000     -3.966000
N           6.529000     25.963000     -6.483000
S           5.475000     25.186000     -8.705000
C           6.825000     26.906000     -7.405000
C           6.218000     26.728000     -8.615000
C          -0.156000     13.123000     -4.862000
H           1.307000     13.800000     -7.233000
H           2.993000     15.607000     -7.417000
H           2.609000     16.111000     -3.019000
H           2.748000     18.094000     -7.170000
H           6.659000     24.079000     -1.817000
H           6.586000     25.399000     -4.064000
H           7.486000     27.729000     -7.167000
H           6.293000     27.398000     -9.460000
H          -0.366000     12.542000     -5.769000
C          -1.453000     13.842000     -4.569000
H           0.111000     12.459000     -4.031000
H          -1.633000     14.481000     -5.442000
H          -1.327000     14.465000     -3.675000
C          -2.673000     12.944000     -4.403000
H          -2.776000     12.185000     -5.188000
C          -3.941000     13.882000     -4.317000
H          -2.756000     12.322000     -3.503000
H          -4.014000     14.392000     -5.286000
H          -3.876000     14.592000     -3.483000
C          -5.153000     13.021000     -4.231000
H          -5.251000     12.555000     -5.219000
C          -6.451000     13.767000     -3.891000
H          -4.971000     12.165000     -3.569000
H          -6.638000     14.594000     -4.586000
H          -6.241000     14.195000     -2.903000
H          -7.245000     13.010000     -3.855000
C         -14.052000     10.853000    -15.150000
C         -13.954000     12.076000    -14.470000
N         -13.168000      9.843000    -15.013000
C         -12.844000     12.302000    -13.592000
C         -12.109000     10.004000    -14.145000
C         -11.913000     11.248000    -13.460000
C         -10.725000     11.497000    -12.619000
C         -10.782000     12.360000    -11.516000
C          -9.388000     11.152000    -12.974000
N          -9.668000     12.751000    -10.855000
N          -9.151000     10.418000    -14.086000
C          -8.290000     11.571000    -12.284000
C          -8.419000     12.446000    -11.191000
S          -7.478000     10.448000    -14.305000
N          -7.080000     11.163000    -12.905000
C          -7.281000     12.932000    -10.499000
S          -5.825000     12.049000    -10.336000
C          -7.220000     14.140000     -9.842000
C          -5.089000     13.314000     -9.362000
S          -8.339000     15.502000     -9.850000
C          -6.018000     14.283000     -9.170000
C          -3.810000     13.310000     -8.817000
C          -7.252000     16.190000     -8.648000
C          -6.071000     15.486000     -8.457000
N          -3.136000     12.116000     -8.759000
S          -2.824000     14.652000     -8.345000
C          -1.874000     12.185000     -8.246000
C          -1.524000     13.511000     -7.994000
C         -15.282000     10.654000    -16.029000
H         -14.630000     12.925000    -14.509000
H         -12.767000     13.248000    -13.063000
H         -11.329000      9.244000    -14.132000
H         -11.760000     12.555000    -11.077000
H          -7.393000     17.205000     -8.299000
H          -5.321000     15.990000     -7.859000
H          -1.221000     11.325000     -8.179000
H          -0.512000     13.805000     -7.749000
H         -16.194000     10.869000    -15.459000
C         -15.433000      9.398000    -16.883000
H         -15.264000     11.467000    -16.765000
H         -15.586000      8.573000    -16.177000
H         -14.503000      9.081000    -17.371000
C         -16.537000      9.440000    -17.925000
H         -17.462000      9.526000    -17.342000
C         -16.675000      8.273000    -18.918000
H         -16.464000     10.355000    -18.527000
H         -16.693000      7.370000    -18.295000
H         -15.819000      8.298000    -19.604000
C         -17.946000      8.278000    -19.795000
H         -18.846000      8.266000    -19.168000
C         -18.034000      7.070000    -20.708000
H         -17.942000      9.251000    -20.300000
H         -17.205000      7.029000    -21.426000
H         -18.934000      7.241000    -21.311000
H         -18.177000      6.129000    -20.164000
$end

--------------------------------------------------------------

             Standard Nuclear Orientation (Angstroms)
    I     Atom           X                Y                Z
 ----------------------------------------------------------------
    1      C       3.9457473817     3.8973189768     0.9695896495
    2      C       3.9976103232     2.9259818357     1.9172158382
    3      N       5.0319906229     4.2319977541     0.2033868455
    4      C       5.2111048274     2.1800498973     2.0524993608
    5      C       6.2019164769     3.6039843481     0.3037992851
    6      C       6.3576271638     2.5215375362     1.2726925100
    7      C       7.5181135665     1.5872776958     1.1688134467
    8      C       7.2799215178     0.1927884405     1.1430207169
    9      C       8.8380010879     1.9933250952     1.0961399283
   10      N       8.3178951167    -0.7176980775     0.8716112322
   11      N       9.2414096395     3.2351516351     1.3395621654
   12      C       9.8655180119     1.1017119852     0.9416212150
   13      C       9.6154593795    -0.2577591427     0.7032539925
   14      S      10.8728411531     3.2793853398     1.2521173503
   15      N      11.0831810977     1.7095084148     0.9891828563
   16      C      10.5522034550    -1.3453076917     0.4075418172
   17      S      10.2330760598    -3.0202286789     0.7940432948
   18      C      11.7304178494    -1.2412275882    -0.3261101253
   19      C      11.5782968749    -3.6045115546    -0.1092620135
   20      S      12.5068363729     0.1355505343    -1.2048855674
   21      C      12.2611262666    -2.5267942972    -0.6685540080
   22      C      11.9917765131    -4.9581614728    -0.2696287422
   23      C      13.5804082365    -1.0338912372    -1.8598102933
   24      C      13.3713512160    -2.3750458391    -1.5315626795
   25      N      13.2096466228    -5.2551194747    -0.7164691397
   26      S      11.0973627961    -6.2762510734     0.3547340593
   27      C      13.4961153998    -6.5482956762    -0.4470624738
   28      C      12.4347012951    -7.2856303362    -0.0066414281
   29      C       2.6754579049     4.7248739064     0.5535962795
   30      H       3.1418539844     2.7262821561     2.5557063445
   31      H       5.2234307037     1.4064724761     2.8142440991
   32      H       6.9962290523     4.0006797201    -0.3275946604
   33      H       6.2982412550    -0.2581872734     1.2715538524
   34      H      14.3785542986    -0.6986031975    -2.5080400318
   35      H      14.0004768281    -3.1947815853    -1.8577409601
   36      H      14.4952545842    -6.9384609933    -0.5898417283
   37      H      12.4535052010    -8.3434847290     0.2150351306
   38      H       1.8615124587     4.5167259511     1.2596254851
   39      C       2.1233032144     4.3042766073    -0.7892522263
   40      H       2.9200941352     5.7939332791     0.5502537381
   41      H       1.9172322348     3.2312884518    -0.6939570552
   42      H       2.8860022941     4.4667760858    -1.5606957001
   43      C       0.8222323303     4.9828098202    -1.2005516714
   44      H       0.0593932883     4.9953364943    -0.4126210409
   45      C       0.3086140922     4.2638143838    -2.5098667091
   46      H       0.8425985637     6.0424480400    -1.4843210490
   47      H       0.0855281939     3.2275339616    -2.2257090620
   48      H       1.0393987184     4.3175652424    -3.3265341294
   49      C      -1.0023316348     4.8615474654    -2.8864267494
   50      H      -1.7090723436     4.5226408543    -2.1192475790
   51      C      -1.5230190055     4.4531310841    -4.2717067650
   52      H      -0.9842452774     5.9495583531    -2.7449728986
   53      H      -1.5723369478     3.3634765542    -4.3819054314
   54      H      -0.7467731278     4.8279842001    -4.9502017751
   55      H      -2.4805273809     4.9716668689    -4.4098347883
   56      C     -13.5090287378    -1.6333922193    -0.7615097942
   57      C     -12.5770270777    -2.0562255915    -1.7208417726
   58      N     -13.2351598896    -0.7384325782     0.2102762393
   59      C     -11.2398731210    -1.5427171158    -1.6719711126
   60      C     -11.9723048402    -0.1880396412     0.2658706551
   61      C     -10.9520386406    -0.6156032532    -0.6459534725
   62      C      -9.5588062075    -0.1383073130    -0.5377038874
   63      C      -8.7392384323    -0.0222565450    -1.6688395473
   64      C      -8.8265422089    -0.0298115257     0.6807529648
   65      N      -7.4124460628     0.2236205157    -1.5690173101
   66      N      -9.4493123135    -0.2328933753     1.8649759839
   67      C      -7.4870188103     0.2141779799     0.7391583209
   68      C      -6.7221183441     0.3093897989    -0.4367570614
   69      S      -8.2231570957    -0.2808867706     3.0234361756
   70      N      -6.9942307999     0.1784706886     2.0703570162
   71      C      -5.3192725840     0.5087891502    -0.3880983300
   72      S      -4.5294862102     1.3707438556     0.8606873080
   73      C      -4.4327164205     0.0785473955    -1.3491104013
   74      C      -2.9579703740     1.1639776757     0.1003040340
   75      S      -4.6712829390    -1.0027876372    -2.7206312956
   76      C      -3.1486929625     0.5193121314    -1.0773619757
   77      C      -1.7356958579     1.6313053729     0.5699122011
   78      C      -3.0007956943    -0.6077775956    -3.1119833521
   79      C      -2.3299180914     0.1224249928    -2.1406001003
   80      N      -1.7444553607     2.5913945516     1.5504365710
   81      S      -0.1430017931     1.0454042853     0.2293398420
   82      C      -0.5146640972     2.9824546927     1.9923182454
   83      C       0.4831271781     2.2119740138     1.3964557659
   84      C     -14.9274809627    -2.1760882301    -0.8979514505
   85      H     -12.7231663539    -2.7518187332    -2.5418725231
   86      H     -10.5167716972    -1.8676445578    -2.4150945804
   87      H     -11.7143827802     0.4325718681     1.1228925716
   88      H      -9.2268196794     0.0621524637    -2.6395968017
   89      H      -2.4904615499    -1.1214292756    -3.9167367383
   90      H      -1.2602317967     0.2163044370    -2.2857823341
   91      H      -0.3798966067     3.7034225025     2.7876427960
   92      H       1.5113963235     2.2383080088     1.7319763843
   93      H     -15.2995871615    -2.0123631268    -1.9165780098
   94      C     -15.9888601073    -1.8513665216     0.1497522879
   95      H     -14.8407302481    -3.2683570343    -0.8488375745
   96      H     -16.1989369100    -0.7806469344     0.0406775308
   97      H     -15.6161701032    -1.8835969931     1.1810603687
   98      C     -17.2645384356    -2.6714784786     0.0697199143
   99      H     -17.7016482570    -2.4057457508    -0.9004507518
  100      C     -18.3322242631    -2.5052442280     1.1648889184
  101      H     -17.0312992610    -3.7430291837     0.0213817946
  102      H     -18.5082301095    -1.4241348796     1.2288148053
  103      H     -17.9399981618    -2.9270590433     2.0987989500
  104      C     -19.6864259618    -3.1984357860     0.8999017055
  105      H     -20.1314949167    -2.8294487910    -0.0323188816
  106      C     -20.7009140820    -2.9442259278     1.9984317243
  107      H     -19.4393350096    -4.2514210378     0.7211893084
  108      H     -20.3739401188    -3.3416225991     2.9677665029
  109      H     -21.5740298578    -3.5450195872     1.7163575835
  110      H     -21.0250683232    -1.8982755623     2.0511371379
 ----------------------------------------------------------------

   10   -5663.5039518434      3.81E-06 Convergence criterion met
 Total energy in the final basis set = -5663.5039518434

                    Orbital Energies (a.u.)
 --------------------------------------------------------------

 Alpha MOs
 -- Occupied --
-88.995 -88.991 -88.935 -88.926 -88.926 -88.924 -88.917 -88.915
-14.388 -14.382 -14.378 -14.375 -14.354 -14.345 -14.339 -14.339
-14.334 -14.330 -10.268 -10.265 -10.265 -10.258 -10.255 -10.252
-10.251 -10.250 -10.246 -10.242 -10.239 -10.237 -10.237 -10.236
-10.234 -10.234 -10.234 -10.232 -10.232 -10.232 -10.231 -10.229
-10.228 -10.226 -10.226 -10.226 -10.223 -10.223 -10.222 -10.221
-10.217 -10.216 -10.207 -10.207 -10.206 -10.204 -10.203 -10.192
-10.186 -10.183 -10.176 -10.173 -10.173 -10.172 -10.172 -10.171
-10.171 -10.168 -10.166 -10.164  -8.050  -8.045  -7.995  -7.988
 -7.986  -7.984  -7.976  -7.975  -6.015  -6.010  -6.010  -6.008
 -6.005  -6.003  -5.959  -5.956  -5.952  -5.952  -5.950  -5.949
 -5.948  -5.946  -5.946  -5.944  -5.942  -5.941  -5.940  -5.939
 -5.938  -5.936  -5.932  -5.931  -1.046  -1.024  -0.977  -0.961
 -0.958  -0.943  -0.936  -0.930  -0.924  -0.910  -0.901  -0.891
 -0.854  -0.849  -0.831  -0.829  -0.816  -0.813  -0.812  -0.806
 -0.804  -0.802  -0.798  -0.796  -0.788  -0.784  -0.771  -0.769
 -0.755  -0.751  -0.747  -0.741  -0.729  -0.725  -0.715  -0.706
 -0.700  -0.693  -0.677  -0.676  -0.656  -0.653  -0.648  -0.646
 -0.637  -0.633  -0.630  -0.628  -0.612  -0.610  -0.601  -0.596
 -0.594  -0.590  -0.580  -0.579  -0.574  -0.574  -0.565  -0.564
 -0.554  -0.548  -0.544  -0.540  -0.525  -0.524  -0.516  -0.514
 -0.508  -0.508  -0.504  -0.501  -0.488  -0.484  -0.478  -0.477
 -0.476  -0.476  -0.475  -0.473  -0.469  -0.462  -0.453  -0.450
 -0.449  -0.444  -0.441  -0.439  -0.438  -0.435  -0.433  -0.431
 -0.428  -0.427  -0.425  -0.424  -0.423  -0.416  -0.414  -0.413
 -0.413  -0.412  -0.410  -0.409  -0.408  -0.405  -0.400  -0.398
 -0.396  -0.391  -0.389  -0.389  -0.388  -0.386  -0.382  -0.381
 -0.381  -0.378  -0.373  -0.372  -0.367  -0.365  -0.364  -0.362
 -0.357  -0.351  -0.350  -0.349  -0.348  -0.347  -0.341  -0.340
 -0.339  -0.337  -0.333  -0.329  -0.325  -0.324  -0.319  -0.314
 -0.309  -0.308  -0.308  -0.305  -0.302  -0.300  -0.298  -0.298
 -0.295  -0.292  -0.292  -0.289  -0.288  -0.285  -0.280  -0.279
 -0.270  -0.269  -0.267  -0.266  -0.256  -0.255  -0.250  -0.250
 -0.245  -0.243  -0.234  -0.231  -0.195  -0.192

          Ground-State Mulliken Net Atomic Charges

     Atom                 Charge (a.u.)
  ----------------------------------------
      1 C                     0.264165
      2 C                    -0.128502
      3 N                    -0.467668
      4 C                    -0.101347
      5 C                     0.106215
      6 C                     0.018734
      7 C                     0.024831
      8 C                     0.063117
      9 C                     0.248959
     10 N                    -0.527828
     11 N                    -0.560711
     12 C                     0.210063
     13 C                     0.282585
     14 S                     0.616491
     15 N                    -0.555115
     16 C                    -0.230738
     17 S                     0.329037
     18 C                    -0.115695
     19 C                    -0.212258
     20 S                     0.288544
     21 C                     0.136143
     22 C                     0.060083
     23 C                    -0.308798
     24 C                    -0.057145
     25 N                    -0.437511
     26 S                     0.273574
     27 C                     0.128190
     28 C                    -0.310521
     29 C                    -0.213167
     30 H                     0.093712
     31 H                     0.105855
     32 H                     0.120710
     33 H                     0.120201
     34 H                     0.125800
     35 H                     0.127144
     36 H                     0.113664
     37 H                     0.130008
     38 H                     0.078599
     39 C                    -0.159323
     40 H                     0.114202
     41 H                     0.087710
     42 H                     0.112233
     43 C                    -0.189093
     44 H                     0.097290
     45 C                    -0.170099
     46 H                     0.090741
     47 H                     0.096327
     48 H                     0.087983
     49 C                    -0.183109
     50 H                     0.095755
     51 C                    -0.313208
     52 H                     0.084003
     53 H                     0.103144
     54 H                     0.098568
     55 H                     0.102548
     56 C                     0.291810
     57 C                    -0.116476
     58 N                    -0.491630
     59 C                    -0.081577
     60 C                     0.084986
     61 C                     0.035842
     62 C                     0.030955
     63 C                     0.039484
     64 C                     0.246641
     65 N                    -0.533304
     66 N                    -0.577861
     67 C                     0.166610
     68 C                     0.307055
     69 S                     0.612806
     70 N                    -0.547019
     71 C                    -0.203429
     72 S                     0.372647
     73 C                    -0.111640
     74 C                    -0.193214
     75 S                     0.280928
     76 C                     0.161624
     77 C                     0.028775
     78 C                    -0.285250
     79 C                    -0.113516
     80 N                    -0.448473
     81 S                     0.285325
     82 C                     0.141203
     83 C                    -0.310658
     84 C                    -0.242940
     85 H                     0.091865
     86 H                     0.107678
     87 H                     0.131974
     88 H                     0.117299
     89 H                     0.123670
     90 H                     0.114016
     91 H                     0.125507
     92 H                     0.108873
     93 H                     0.112633
     94 C                    -0.173623
     95 H                     0.110141
     96 H                     0.099611
     97 H                     0.106228
     98 C                    -0.178416
     99 H                     0.083837
    100 C                    -0.166953
    101 H                     0.080684
    102 H                     0.089018
    103 H                     0.090125
    104 C                    -0.175538
    105 H                     0.090536
    106 C                    -0.313332
    107 H                     0.090062
    108 H                     0.102735
    109 H                     0.099012
    110 H                     0.107562
  ----------------------------------------
  Sum of atomic charges =     0.000000

                    Cartesian Multipole Moments
 -----------------------------------------------------------------
    Charge (ESU x 10^10)
                 0.0000
    Dipole Moment (Debye)
         X       1.9965      Y      -3.4520      Z      -0.3623
       Tot       4.0042
    Quadrupole Moments (Debye-Ang)
        XX    -423.8794     XY       6.6978     YY    -427.6342
        XZ      14.9834     YZ       6.7442     ZZ    -435.8387

 Total job time:  94.59s(wall), 1028.24s(cpu)
        *  Thank you very much for using Q-Chem.  Have a nice day.  *
