 Q-Chem 4.4, Q-Chem, Inc., Pleasanton, CA (2016)
 Q-Chem 4.4.2 for Intel X86 Linux

User input:
--------------------------------------------------------------
$comment
SP
$end

$rem
MEM_STATIC 5000
MEM_TOTAL 20000
JOBTYPE SP
EXCHANGE B3LYP
BASIS 6-31g(d,p)
$end

$molecule
0 1
C           3.248000     -4.052000     -9.660000
C           3.530000     -3.363000     -8.483000
N           2.340000     -3.639000    -10.539000
C           2.804000     -2.187000     -8.279000
C           1.680000     -2.500000    -10.296000
C           1.799000     -1.624000     -9.181000
C           1.128000     -0.300000     -9.096000
C           1.871000      0.805000     -8.610000
C          -0.222000     -0.059000     -9.558000
N           1.325000      2.004000     -8.474000
N          -1.038000     -0.994000    -10.077000
C          -0.706000      1.221000     -9.376000
C           0.060000      2.259000     -8.852000
S          -2.450000     -0.222000    -10.441000
N          -1.994000      1.212000     -9.851000
C          -0.534000      3.624000     -8.667000
S          -2.220000      4.053000     -9.005000
C           0.170000      4.689000     -8.194000
C          -1.788000      5.782000     -8.944000
S           1.723000      4.680000     -7.343000
C          -0.523000      5.882000     -8.333000
C          -2.613000      6.881000     -9.127000
C           1.541000      6.458000     -7.376000
C           0.343000      6.961000     -7.931000
N          -3.793000      6.505000     -9.549000
S          -2.379000      8.613000     -8.813000
C          -4.429000      7.605000     -9.958000
C          -3.797000      8.795000     -9.747000
C           3.915000     -5.470000     -9.778000
H           4.187000     -3.778000     -7.724000
H           2.940000     -1.580000     -7.389000
H           0.986000     -2.164000    -11.065000
H           2.823000      0.674000     -8.098000
H           2.452000      6.940000     -7.046000
H           0.121000      8.020000     -8.000000
H          -5.410000      7.492000    -10.401000
H          -4.099000      9.786000    -10.059000
H           4.857000     -5.376000    -10.334000
C           3.057000     -6.585000    -10.301000
H           4.197000     -5.778000     -8.764000
H           2.473000     -6.459000    -11.221000
H           2.305000     -6.755000     -9.522000
C           3.955000     -7.834000    -10.518000
H           4.609000     -7.637000    -11.377000
C           3.101000     -9.123000    -10.919000
H           4.512000     -8.078000     -9.605000
H           2.396000     -9.008000    -11.752000
H           2.439000     -9.292000    -10.061000
C           4.025000    -10.357000    -11.145000
H           4.897000     -9.907000    -11.635000
C           3.376000    -11.431000    -12.054000
H           4.415000    -10.847000    -10.244000
H           2.967000    -11.079000    -13.009000
H           2.529000    -11.731000    -11.424000
H           4.034000    -12.302000    -12.160000
C         -14.052000     10.853000    -15.150000
C         -13.954000     12.076000    -14.470000
N         -13.168000      9.843000    -15.013000
C         -12.844000     12.302000    -13.592000
C         -12.109000     10.004000    -14.145000
C         -11.913000     11.248000    -13.460000
C         -10.725000     11.497000    -12.619000
C         -10.782000     12.360000    -11.516000
C          -9.388000     11.152000    -12.974000
N          -9.668000     12.751000    -10.855000
N          -9.151000     10.418000    -14.086000
C          -8.290000     11.571000    -12.284000
C          -8.419000     12.446000    -11.191000
S          -7.478000     10.448000    -14.305000
N          -7.080000     11.163000    -12.905000
C          -7.281000     12.932000    -10.499000
S          -5.825000     12.049000    -10.336000
C          -7.220000     14.140000     -9.842000
C          -5.089000     13.314000     -9.362000
S          -8.339000     15.502000     -9.850000
C          -6.018000     14.283000     -9.170000
C          -3.810000     13.310000     -8.817000
C          -7.252000     16.190000     -8.648000
C          -6.071000     15.486000     -8.457000
N          -3.136000     12.116000     -8.759000
S          -2.824000     14.652000     -8.345000
C          -1.874000     12.185000     -8.246000
C          -1.524000     13.511000     -7.994000
C         -15.282000     10.654000    -16.029000
H         -14.630000     12.925000    -14.509000
H         -12.767000     13.248000    -13.063000
H         -11.329000      9.244000    -14.132000
H         -11.760000     12.555000    -11.077000
H          -7.393000     17.205000     -8.299000
H          -5.321000     15.990000     -7.859000
H          -1.221000     11.325000     -8.179000
H          -0.512000     13.805000     -7.749000
H         -16.194000     10.869000    -15.459000
C         -15.433000      9.398000    -16.883000
H         -15.264000     11.467000    -16.765000
H         -15.586000      8.573000    -16.177000
H         -14.503000      9.081000    -17.371000
C         -16.537000      9.440000    -17.925000
H         -17.462000      9.526000    -17.342000
C         -16.675000      8.273000    -18.918000
H         -16.464000     10.355000    -18.527000
H         -16.693000      7.370000    -18.295000
H         -15.819000      8.298000    -19.604000
C         -17.946000      8.278000    -19.795000
H         -18.846000      8.266000    -19.168000
C         -18.034000      7.070000    -20.708000
H         -17.942000      9.251000    -20.300000
H         -17.205000      7.029000    -21.426000
H         -18.934000      7.241000    -21.311000
H         -18.177000      6.129000    -20.164000
$end

--------------------------------------------------------------

             Standard Nuclear Orientation (Angstroms)
    I     Atom           X                Y                Z
 ----------------------------------------------------------------
    1      C      12.9365340131    -1.3662095806    -0.3948812163
    2      C      12.8187187230    -0.1251417193     0.2259602459
    3      N      11.8860167617    -2.1097343099    -0.7284355319
    4      C      11.5139460958     0.3096039381     0.4713835632
    5      C      10.6582590101    -1.6392259974    -0.4770337993
    6      C      10.2852286242    -0.4084664619     0.1319336030
    7      C       8.8836436409     0.0807174676     0.2137909024
    8      C       8.6249866581     1.4440588124    -0.0754614838
    9      C       7.7541966604    -0.7787799553     0.4959941951
   10      N       7.4060297316     1.9543919954     0.0135163431
   11      N       7.8333019166    -2.0967149988     0.7533491629
   12      C       6.5230053983    -0.1585024743     0.5681324145
   13      C       6.3359801990     1.1978003638     0.3146759362
   14      S       6.2861777600    -2.6093754156     1.0098840362
   15      N       5.6172913522    -1.1444889041     0.8717157257
   16      C       4.9714602695     1.8110353340     0.4256454508
   17      S       3.5091370651     0.9506032642     0.9376498444
   18      C       4.7152464978     3.1209031458     0.1569991800
   19      C       2.5083087714     2.2859168221     0.3091067444
   20      S       5.8729451624     4.4540206566     0.0205348825
   21      C       3.3562895158     3.3915121831     0.1038421470
   22      C       1.1267706445     2.4009519476     0.3149653862
   23      C       4.4248258203     5.4264941393    -0.3702882188
   24      C       3.1805139995     4.7597843297    -0.3117722182
   25      N       0.5735533402     1.2792162844     0.6990483411
   26      S       0.0430054261     3.7706916669    -0.0051003145
   27      C      -0.7288660792     1.3724776189     0.4219509224
   28      C      -1.1722828177     2.5719154439    -0.0521540237
   29      C      14.3995988676    -1.9338868883    -0.4768611271
   30      H      13.6879055771     0.4106620715     0.5966130623
   31      H      11.3112341750     1.2580844383     0.9595819019
   32      H       9.8224183586    -2.2496578959    -0.8156136315
   33      H       9.4264398317     2.1787763630    -0.1343845799
   34      H       4.7097803862     6.4126028695    -0.7131226797
   35      H       2.2361604773     5.2483387599    -0.5239914302
   36      H      -1.3544111952     0.5106580937     0.6151850135
   37      H      -2.1616229409     2.8377744855    -0.4002259855
   38      H      14.8317922930    -1.6670295366    -1.4501709426
   39      C      14.5852325991    -3.3878678650    -0.1537552049
   40      H      14.9952249907    -1.3967036761     0.2709675418
   41      H      13.9488634977    -4.1512310210    -0.6181290402
   42      H      14.3722305718    -3.4707763389     0.9181595870
   43      C      16.0523050388    -3.7794845066    -0.4821282592
   44      H      16.1677433112    -3.7792559006    -1.5734943541
   45      C      16.3925016559    -5.2695045510    -0.0176451819
   46      H      16.7580515431    -3.1074730505     0.0215347973
   47      H      15.7026631646    -6.0577249252    -0.3447086277
   48      H      16.2508796648    -5.2575321784     1.0699065980
   49      C      17.8634146273    -5.6425696150    -0.3709799927
   50      H      17.9974114048    -5.1587622841    -1.3461514289
   51      C      18.0819375946    -7.1726447013    -0.4808705886
   52      H      18.6432999629    -5.2208654654     0.2755070324
   53      H      17.3828802128    -7.7199771785    -1.1250413241
   54      H      17.8777255626    -7.4717775116     0.5550473656
   55      H      19.1336603001    -7.4026584836    -0.6901885538
   56      C     -10.2672745334    -4.8821437647     0.5054524738
   57      C     -10.9919139023    -3.6945113938     0.6847849488
   58      N      -8.9226657029    -4.9357111187     0.4080736695
   59      C     -10.2884394697    -2.4472700197     0.7445568259
   60      C      -8.2052558386    -3.7622549629     0.5037279280
   61      C      -8.8818157710    -2.5046361151     0.6295789967
   62      C      -8.1522466572    -1.2208723089     0.6121033524
   63      C      -8.6305990603    -0.1023244869     1.3082762822
   64      C      -7.1028697480    -0.8918025255    -0.2951673790
   65      N      -8.0872065028     1.1264459156     1.1481331383
   66      N      -6.6069409607    -1.8364973319    -1.1276788568
   67      C      -6.5853081757     0.3616055497    -0.4306783229
   68      C      -7.1205869277     1.4420209212     0.2925742491
   69      S      -5.5968789427    -1.0145797944    -2.2009990707
   70      N      -5.6189754364     0.4320864333    -1.4686756649
   71      C      -6.6269645736     2.7598517252     0.1200548488
   72      S      -5.0056117906     3.1157063237    -0.2931964766
   73      C      -7.3683420992     3.9048477293     0.3043847571
   74      C      -5.2988725111     4.8478040994    -0.2266198646
   75      S      -9.1024250714     4.1169418540     0.5394194944
   76      C      -6.5816560910     5.0362521173     0.1706453263
   77      C      -4.3764478867     5.8601805567    -0.4655941746
   78      C      -8.6989014628     5.8173196405     0.7529635893
   79      C      -7.3821522095     6.1465225554     0.4620085333
   80      N      -3.0437234859     5.5328911302    -0.4674115463
   81      S      -4.6585667507     7.4957781754    -0.9566882350
   82      C      -2.1924610455     6.5626873415    -0.7420859368
   83      C      -2.9105387457     7.7125002952    -1.0685435725
   84      C     -11.0679821473    -6.1798319934     0.5016343571
   85      H     -12.0652662302    -3.5695041673     0.7924231094
   86      H     -10.8476360471    -1.5262695485     0.8850677509
   87      H      -7.1363326726    -3.7896250240     0.2967903895
   88      H      -9.3226823359    -0.2774363159     2.1314327600
   89      H      -9.4821639485     6.5587412442     0.8462421195
   90      H      -7.1678398264     7.2076520834     0.4151648863
   91      H      -1.1205367382     6.4339293344    -0.8120691853
   92      H      -2.4362238586     8.5913115430    -1.4848621749
   93      H     -11.7087334069    -6.2324511128     1.3901938946
   94      C     -10.3845065239    -7.5149167599     0.2186807592
   95      H     -11.7969664592    -6.0844362436    -0.3122885655
   96      H      -9.7385961831    -7.7093219649     1.0832479619
   97      H      -9.6411988814    -7.4688590235    -0.5868659083
   98      C     -11.3138799117    -8.6864716429    -0.0460233435
   99      H     -11.8644254088    -8.8181979961     0.8933689194
  100      C     -10.7138117043   -10.0378565842    -0.4710632084
  101      H     -12.0591629210    -8.4226345241    -0.8075357931
  102      H      -9.9383810925   -10.2520543751     0.2750525150
  103      H     -10.3090606974    -9.9340970221    -1.4856407440
  104      C     -11.6925093355   -11.2318569340    -0.5043665331
  105      H     -12.1459356239   -11.3851769674     0.4826342614
  106      C     -11.0152102187   -12.5357450105    -0.8808220952
  107      H     -12.5075379705   -10.9160816255    -1.1660192204
  108      H     -10.5844130543   -12.5054614281    -1.8897535635
  109      H     -11.8297738633   -13.2682632939    -0.9332914529
  110      H     -10.3060136256   -12.8869301256    -0.1221553651
 ----------------------------------------------------------------

   10   -5663.4712961795      4.58E-06 Convergence criterion met
 Total energy in the final basis set = -5663.4712961795

                    Orbital Energies (a.u.)
 --------------------------------------------------------------

 Alpha MOs
 -- Occupied --
-88.994 -88.990 -88.940 -88.930 -88.924 -88.921 -88.916 -88.910
-14.392 -14.381 -14.375 -14.371 -14.349 -14.346 -14.345 -14.336
-14.329 -14.323 -10.273 -10.262 -10.260 -10.255 -10.254 -10.253
-10.250 -10.248 -10.242 -10.240 -10.238 -10.238 -10.237 -10.237
-10.236 -10.234 -10.233 -10.233 -10.231 -10.230 -10.229 -10.226
-10.226 -10.225 -10.220 -10.219 -10.219 -10.218 -10.213 -10.213
-10.211 -10.211 -10.210 -10.209 -10.208 -10.205 -10.204 -10.194
-10.188 -10.184 -10.178 -10.177 -10.175 -10.175 -10.174 -10.173
-10.172 -10.172 -10.172 -10.169  -8.049  -8.045  -8.000  -7.990
 -7.985  -7.981  -7.974  -7.969  -6.014  -6.010  -6.008  -6.007
 -6.005  -6.003  -5.964  -5.960  -5.957  -5.954  -5.950  -5.949
 -5.947  -5.946  -5.945  -5.942  -5.942  -5.939  -5.937  -5.935
 -5.933  -5.930  -5.930  -5.925  -1.030  -1.027  -0.979  -0.966
 -0.962  -0.959  -0.936  -0.932  -0.929  -0.906  -0.894  -0.886
 -0.859  -0.835  -0.833  -0.825  -0.820  -0.810  -0.808  -0.807
 -0.804  -0.801  -0.799  -0.790  -0.786  -0.778  -0.774  -0.763
 -0.759  -0.749  -0.745  -0.736  -0.734  -0.717  -0.716  -0.704
 -0.702  -0.689  -0.680  -0.674  -0.658  -0.650  -0.647  -0.639
 -0.638  -0.630  -0.629  -0.618  -0.616  -0.606  -0.605  -0.600
 -0.592  -0.587  -0.584  -0.576  -0.574  -0.571  -0.568  -0.565
 -0.552  -0.548  -0.543  -0.532  -0.529  -0.522  -0.517  -0.514
 -0.511  -0.504  -0.499  -0.496  -0.486  -0.480  -0.478  -0.477
 -0.477  -0.473  -0.469  -0.466  -0.463  -0.461  -0.457  -0.451
 -0.450  -0.446  -0.445  -0.442  -0.440  -0.435  -0.432  -0.431
 -0.427  -0.427  -0.421  -0.418  -0.416  -0.415  -0.414  -0.413
 -0.413  -0.410  -0.407  -0.404  -0.403  -0.402  -0.400  -0.399
 -0.393  -0.392  -0.390  -0.388  -0.385  -0.384  -0.381  -0.379
 -0.374  -0.373  -0.372  -0.370  -0.368  -0.367  -0.359  -0.359
 -0.357  -0.355  -0.352  -0.350  -0.344  -0.343  -0.342  -0.338
 -0.335  -0.332  -0.329  -0.328  -0.325  -0.325  -0.319  -0.315
 -0.313  -0.309  -0.305  -0.303  -0.302  -0.300  -0.297  -0.297
 -0.295  -0.294  -0.292  -0.291  -0.288  -0.282  -0.278  -0.276
 -0.272  -0.271  -0.269  -0.262  -0.260  -0.253  -0.248  -0.247
 -0.244  -0.237  -0.236  -0.224  -0.199  -0.184

          Ground-State Mulliken Net Atomic Charges

     Atom                 Charge (a.u.)
  ----------------------------------------
      1 C                     0.271659
      2 C                    -0.103253
      3 N                    -0.481359
      4 C                    -0.108774
      5 C                     0.079579
      6 C                     0.057190
      7 C                    -0.004743
      8 C                     0.067227
      9 C                     0.248671
     10 N                    -0.527854
     11 N                    -0.577653
     12 C                     0.222745
     13 C                     0.331440
     14 S                     0.618781
     15 N                    -0.573593
     16 C                    -0.231355
     17 S                     0.361520
     18 C                    -0.101860
     19 C                    -0.207103
     20 S                     0.289618
     21 C                     0.114051
     22 C                     0.057887
     23 C                    -0.301287
     24 C                    -0.090943
     25 N                    -0.427881
     26 S                     0.286135
     27 C                     0.124784
     28 C                    -0.317098
     29 C                    -0.233377
     30 H                     0.095725
     31 H                     0.081234
     32 H                     0.102729
     33 H                     0.114155
     34 H                     0.125595
     35 H                     0.105320
     36 H                     0.103535
     37 H                     0.160556
     38 H                     0.112197
     39 C                    -0.166090
     40 H                     0.100042
     41 H                     0.116209
     42 H                     0.092713
     43 C                    -0.186844
     44 H                     0.098479
     45 C                    -0.184911
     46 H                     0.091619
     47 H                     0.094042
     48 H                     0.089575
     49 C                    -0.176831
     50 H                     0.089747
     51 C                    -0.321736
     52 H                     0.093112
     53 H                     0.105608
     54 H                     0.103174
     55 H                     0.099188
     56 C                     0.292502
     57 C                    -0.116287
     58 N                    -0.491120
     59 C                    -0.081466
     60 C                     0.085552
     61 C                     0.035632
     62 C                     0.031744
     63 C                     0.039592
     64 C                     0.246847
     65 N                    -0.532228
     66 N                    -0.575488
     67 C                     0.164601
     68 C                     0.307886
     69 S                     0.616329
     70 N                    -0.551266
     71 C                    -0.211852
     72 S                     0.380844
     73 C                    -0.115636
     74 C                    -0.202529
     75 S                     0.283830
     76 C                     0.164725
     77 C                     0.038025
     78 C                    -0.285073
     79 C                    -0.110146
     80 N                    -0.469182
     81 S                     0.289286
     82 C                     0.145755
     83 C                    -0.320887
     84 C                    -0.243304
     85 H                     0.092541
     86 H                     0.107801
     87 H                     0.132478
     88 H                     0.118413
     89 H                     0.124557
     90 H                     0.113510
     91 H                     0.127118
     92 H                     0.129356
     93 H                     0.113091
     94 C                    -0.173742
     95 H                     0.110486
     96 H                     0.099890
     97 H                     0.106433
     98 C                    -0.178382
     99 H                     0.083985
    100 C                    -0.167150
    101 H                     0.080653
    102 H                     0.089242
    103 H                     0.090296
    104 C                    -0.175613
    105 H                     0.090612
    106 C                    -0.313382
    107 H                     0.090056
    108 H                     0.102885
    109 H                     0.099156
    110 H                     0.107725
  ----------------------------------------
  Sum of atomic charges =     0.000000

                    Cartesian Multipole Moments
 -----------------------------------------------------------------
    Charge (ESU x 10^10)
                 0.0000
    Dipole Moment (Debye)
         X      -4.9564      Y       4.7331      Z      -0.7133
       Tot       6.8904
    Quadrupole Moments (Debye-Ang)
        XX    -384.2876     XY       6.1164     YY    -406.9107
        XZ      10.3817     YZ     -10.8689     ZZ    -450.8469

 Total job time:  92.59s(wall), 992.71s(cpu)
        *  Thank you very much for using Q-Chem.  Have a nice day.  *
