 Q-Chem 4.4, Q-Chem, Inc., Pleasanton, CA (2016)
 Q-Chem 4.4.2 for Intel X86 Linux

User input:
--------------------------------------------------------------
$comment
SP
$end

$rem
MEM_STATIC 5000
MEM_TOTAL 20000
JOBTYPE SP
EXCHANGE B3LYP
BASIS 6-31g(d,p)
$end

$molecule
0 1
C         -14.369000     -5.939000    -10.265000
C         -15.056000     -6.809000    -11.066000
N         -13.385000     -6.259000     -9.402000
C         -14.750000     -8.126000    -10.882000
C         -12.992000     -7.573000     -9.296000
C         -13.723000     -8.556000    -10.002000
C         -13.223000     -9.955000    -10.010000
C         -12.504000    -10.461000    -11.095000
C         -13.366000    -10.860000     -8.975000
N         -12.051000    -11.721000    -11.221000
N         -13.926000    -10.492000     -7.798000
C         -13.018000    -12.160000     -9.071000
C         -12.328000    -12.576000    -10.222000
S         -14.010000    -11.845000     -6.904000
N         -13.129000    -12.823000     -7.885000
C         -11.830000    -13.954000    -10.455000
S         -12.345000    -15.383000     -9.436000
C         -10.959000    -14.337000    -11.463000
C         -11.207000    -16.415000    -10.282000
S         -10.045000    -13.462000    -12.755000
C         -10.531000    -15.643000    -11.267000
C         -10.748000    -17.706000     -9.792000
C          -9.240000    -14.990000    -13.113000
C          -9.583000    -16.033000    -12.241000
N         -10.151000    -18.513000    -10.647000
S         -11.226000    -18.369000     -8.197000
C          -9.813000    -19.678000     -9.928000
C         -10.370000    -19.820000     -8.680000
C         -14.693000     -4.435000    -10.309000
H         -15.770000     -6.448000    -11.801000
H         -15.270000     -8.893000    -11.448000
H         -12.143000     -7.830000     -8.664000
H         -12.278000     -9.858000    -11.973000
H          -8.533000    -15.095000    -13.926000
H          -9.017000    -16.957000    -12.265000
H          -9.180000    -20.373000    -10.463000
H         -10.184000    -20.655000     -8.018000
H         -13.746000     -3.883000    -10.353000
C         -15.558000     -3.849000     -9.118000
H         -15.165000     -4.160000    -11.261000
H         -16.445000     -4.432000     -8.841000
H         -16.055000     -2.918000     -9.419000
C         -14.810000     -3.639000     -7.769000
H         -14.774000     -4.575000     -7.197000
C         -15.468000     -2.486000     -6.888000
H         -13.760000     -3.413000     -7.990000
H         -16.553000     -2.639000     -6.937000
H         -15.128000     -1.521000     -7.284000
C         -15.122000     -2.596000     -5.386000
H         -15.724000     -3.390000     -4.928000
C         -15.589000     -1.340000     -4.554000
H         -14.058000     -2.784000     -5.192000
H         -15.314000     -0.467000     -5.158000
H         -15.190000     -1.272000     -3.534000
H         -16.683000     -1.417000     -4.532000
C         -14.219000    -15.421000    -15.172000
C         -13.537000    -16.020000    -14.059000
N         -15.286000    -14.671000    -14.939000
C         -14.069000    -15.842000    -12.754000
C         -15.702000    -14.448000    -13.676000
C         -15.168000    -15.027000    -12.506000
C         -15.649000    -14.789000    -11.103000
C         -15.745000    -15.866000    -10.290000
C         -16.091000    -13.529000    -10.601000
N         -16.082000    -15.765000     -9.000000
N         -15.952000    -12.355000    -11.268000
C         -16.589000    -13.460000     -9.293000
C         -16.552000    -14.625000     -8.484000
S         -16.512000    -11.256000    -10.228000
N         -16.851000    -12.207000     -8.935000
C         -16.948000    -14.700000     -7.086000
S         -16.178000    -15.723000     -5.880000
C         -17.979000    -14.013000     -6.501000
C         -17.345000    -15.307000     -4.694000
S         -19.156000    -13.141000     -7.270000
C         -18.228000    -14.287000     -5.182000
C         -17.279000    -15.702000     -3.344000
C         -19.796000    -12.722000     -5.676000
C         -19.245000    -13.446000     -4.691000
N         -16.114000    -16.113000     -2.936000
S         -18.439000    -15.384000     -2.067000
C         -16.139000    -16.258000     -1.567000
C         -17.212000    -15.802000     -0.922000
C         -13.735000    -15.452000    -16.535000
H         -12.550000    -16.466000    -14.141000
H         -13.646000    -16.350000    -11.893000
H         -16.555000    -13.774000    -13.602000
H         -15.431000    -16.799000    -10.754000
H         -20.604000    -12.019000     -5.517000
H         -19.641000    -13.528000     -3.685000
H         -15.291000    -16.715000     -1.073000
H         -17.446000    -15.954000      0.124000
H         -14.334000    -16.148000    -17.135000
C         -12.167000    -15.625000    -16.680000
H         -13.962000    -14.460000    -16.946000
H         -11.839000    -16.643000    -16.433000
H         -11.668000    -14.964000    -15.961000
C         -11.671000    -15.193000    -18.101000
H         -12.243000    -15.722000    -18.873000
C         -10.160000    -15.264000    -18.430000
H         -11.944000    -14.145000    -18.277000
H          -9.935000    -16.295000    -18.729000
H          -9.577000    -15.109000    -17.513000
C          -9.647000    -14.299000    -19.527000
H         -10.403000    -14.232000    -20.319000
C          -8.263000    -14.692000    -20.142000
H          -9.580000    -13.260000    -19.181000
H          -8.263000    -15.777000    -20.301000
H          -7.432000    -14.294000    -19.547000
H          -8.205000    -14.213000    -21.127000
$end

--------------------------------------------------------------

             Standard Nuclear Orientation (Angstroms)
    I     Atom           X                Y                Z
 ----------------------------------------------------------------
    1      C       3.2655124591     6.2526385638    -0.1258290589
    2      C       2.5372433661     5.7812149646     0.9314570511
    3      N       3.2898286775     5.7352221389    -1.3696594190
    4      C       1.8524678493     4.6258728817     0.6901104892
    5      C       2.5108564084     4.6367479099    -1.6504397108
    6      C       1.8129906790     4.0143433838    -0.5899294423
    7      C       0.8590355386     2.9192402737    -0.9029530329
    8      C      -0.5156956891     3.1544221867    -0.9738439295
    9      C       1.2090167362     1.6133199704    -1.1906756819
   10      N      -1.4627232055     2.2271161210    -1.2017196494
   11      N       2.5083558497     1.2444690336    -1.2907749054
   12      C       0.3100394039     0.6180096351    -1.3373627380
   13      C      -1.0532569899     0.9569758224    -1.3593141927
   14      S       2.4970206949    -0.3624428796    -1.5244554941
   15      N       0.8812633699    -0.5504992816    -1.7457450250
   16      C      -2.1595710576    -0.0098201408    -1.5655949460
   17      S      -1.9266247350    -1.8217446827    -1.4745319714
   18      C      -3.4822844208     0.3198908799    -1.8168199480
   19      C      -3.5866497805    -2.0752543498    -1.9803320276
   20      S      -4.3795923647     1.8677812958    -2.0798003926
   21      C      -4.2070889543    -0.8096994526    -2.1716721272
   22      C      -4.1030602131    -3.3311972273    -2.5031988881
   23      C      -5.7919051883     0.8910227354    -2.4826504925
   24      C      -5.5430129858    -0.4886132165    -2.5058735797
   25      N      -5.4114802252    -3.4877098074    -2.5503569645
   26      S      -3.0695877811    -4.7682081732    -2.7842901072
   27      C      -5.6415234837    -4.7713279491    -3.0868591224
   28      C      -4.5559661709    -5.6085656684    -3.1791376255
   29      C       4.1573392290     7.4948685399     0.0486349744
   30      H       2.5069678727     6.3198393406     1.8744889573
   31      H       1.2744132424     4.1568932935     1.4806520867
   32      H       2.4595915940     4.2620202696    -2.6718236320
   33      H      -0.9446831027     4.1412197932    -0.8072027498
   34      H      -6.7550985731     1.3312821259    -2.7068672906
   35      H      -6.2920124074    -1.1595841785    -2.9102321267
   36      H      -6.6745594058    -4.9835435408    -3.3271512908
   37      H      -4.5887349427    -6.6110941433    -3.5840176874
   38      H       3.9883329268     8.1593538856    -0.8077207316
   39      C       5.7160433264     7.2488715253     0.1901588436
   40      H       3.8161392428     8.1114138916     0.8901618003
   41      H       6.0121620512     6.4542323000     0.8860390074
   42      H       6.2007759123     8.0984611735     0.6877558190
   43      C       6.4748737657     6.8999689828    -1.1235566432
   44      H       6.3911091517     5.8283992626    -1.3455877769
   45      C       8.0087664253     7.3269463001    -1.0652670289
   46      H       5.9618498632     7.3930468452    -1.9578813384
   47      H       8.3782834507     7.0225519667    -0.0784356057
   48      H       8.0680326140     8.4052512262    -1.2586242245
   49      C       8.8929347869     6.5569182227    -2.0718071763
   50      H       9.0844947702     5.5456960319    -1.6932065244
   51      C      10.3591526943     7.1305851226    -2.1664662273
   52      H       8.4618952281     6.4959026027    -3.0795561494
   53      H      10.2480489994     8.2211549771    -2.1961876252
   54      H      10.9602679189     6.7590748936    -3.0060289923
   55      H      10.8238579376     6.8542511300    -1.2120357368
   56      C      -5.2937150755     0.6281075956     2.8930694817
   57      C      -5.0967165599    -0.3050354948     1.8192307798
   58      N      -4.2586725419     0.9565131987     3.6520916904
   59      C      -3.8149489048    -0.8934782497     1.6502935051
   60      C      -3.0360305617     0.4482495957     3.3975947395
   61      C      -2.7209968704    -0.5229990374     2.4245958361
   62      C      -1.3594292311    -1.0993248566     2.1592731768
   63      C      -1.2814954103    -2.4336864586     1.9506600549
   64      C      -0.1430306485    -0.3551727662     2.1990243366
   65      N      -0.1376459753    -3.0446181439     1.6247138232
   66      N      -0.0834070145     0.9976894908     2.2922699050
   67      C       1.0692682054    -1.0316284040     2.0083196987
   68      C       1.0392964048    -2.4145894919     1.6927324357
   69      S       1.4947305074     1.3183299509     2.1939202363
   70      N       2.0966121683    -0.1896153368     1.9593771156
   71      C       2.1970902143    -3.2392541436     1.3824314419
   72      S       2.2029539716    -4.5629011134     0.2240751428
   73      C       3.4401912475    -3.1312217171     1.9482793155
   74      C       3.8047974629    -5.0062970791     0.6472044928
   75      S       3.8566299703    -2.2256668010     3.2687425236
   76      C       4.3716066726    -4.0594446706     1.5639546421
   77      C       4.5554650913    -5.9951671699    -0.0172614998
   78      C       5.5223103624    -2.7710999302     3.0363451637
   79      C       5.6196734320    -3.7715198283     2.1488303975
   80      N       4.1198917034    -6.3328624541    -1.1957553347
   81      S       6.1697904227    -6.5654877883     0.3650225786
   82      C       5.0545844911    -7.1349930472    -1.8111795008
   83      C       6.2405273304    -7.2607487501    -1.2170287749
   84      C      -6.5201950484     1.3614244166     3.1188554780
   85      H      -5.8283774499    -0.4637456605     1.0322794310
   86      H      -3.6389683504    -1.6724317799     0.9150546036
   87      H      -2.2519177258     0.8294044679     4.0512376267
   88      H      -2.2435912658    -2.9416981881     1.9766725088
   89      H       6.3633580799    -2.3989015286     3.6077128972
   90      H       6.4878854835    -4.4090968569     2.0252206640
   91      H       4.7994768671    -7.6121286183    -2.7488632146
   92      H       7.0293060685    -7.9479757855    -1.4954584862
   93      H      -7.0509869446     0.9551630709     3.9885845633
   94      C      -7.4158285874     1.5722455626     1.8292923705
   95      H      -6.2046751205     2.3664458042     3.4269028536
   96      H      -7.9095574429     0.6443259239     1.5128844669
   97      H      -6.7717053766     1.8718423461     0.9936907569
   98      C      -8.4500932195     2.7302957695     2.0320172801
   99      H      -9.0318886499     2.5557770149     2.9452895732
  100      C      -9.4016488749     3.1081041814     0.8708947031
  101      H      -7.9135897852     3.6588322518     2.2639506022
  102      H     -10.2544105645     2.4191773867     0.9050176036
  103      H      -8.9127638750     2.8949820076    -0.0884662279
  104      C      -9.9310032565     4.5632468522     0.8587808202
  105      H     -10.1364265469     4.8720927204     1.8911104679
  106      C     -11.2013052511     4.7846864616    -0.0274625673
  107      H      -9.1702106484     5.2892118734     0.5458984215
  108      H     -11.8794390094     3.9397364250     0.1419482988
  109      H     -10.9321618240     4.9822438290    -1.0722223015
  110      H     -11.6975677779     5.6879530832     0.3478545184
 ----------------------------------------------------------------

    9   -5663.5064276638      8.95E-06 Convergence criterion met
 Total energy in the final basis set = -5663.5064276638

                    Orbital Energies (a.u.)
 --------------------------------------------------------------

 Alpha MOs
 -- Occupied --
-88.990 -88.989 -88.928 -88.927 -88.925 -88.924 -88.916 -88.907
-14.386 -14.384 -14.383 -14.374 -14.349 -14.346 -14.345 -14.337
-14.330 -14.318 -10.272 -10.263 -10.262 -10.262 -10.257 -10.255
-10.249 -10.247 -10.245 -10.242 -10.236 -10.236 -10.234 -10.233
-10.232 -10.231 -10.230 -10.228 -10.228 -10.226 -10.225 -10.223
-10.222 -10.222 -10.218 -10.217 -10.217 -10.217 -10.216 -10.212
-10.211 -10.207 -10.205 -10.201 -10.199 -10.198 -10.195 -10.193
-10.187 -10.187 -10.182 -10.181 -10.180 -10.179 -10.178 -10.177
-10.175 -10.174 -10.171 -10.169  -8.045  -8.044  -7.988  -7.986
 -7.986  -7.984  -7.974  -7.970  -6.010  -6.009  -6.004  -6.003
 -6.003  -6.002  -5.951  -5.950  -5.950  -5.948  -5.948  -5.946
 -5.946  -5.944  -5.944  -5.943  -5.943  -5.941  -5.939  -5.935
 -5.934  -5.931  -5.930  -5.926  -1.045  -1.038  -0.978  -0.964
 -0.963  -0.962  -0.935  -0.935  -0.928  -0.909  -0.907  -0.896
 -0.859  -0.839  -0.836  -0.834  -0.813  -0.810  -0.809  -0.805
 -0.801  -0.799  -0.795  -0.791  -0.780  -0.778  -0.769  -0.762
 -0.754  -0.745  -0.741  -0.737  -0.730  -0.726  -0.714  -0.705
 -0.696  -0.689  -0.676  -0.672  -0.657  -0.653  -0.650  -0.640
 -0.639  -0.636  -0.630  -0.624  -0.611  -0.607  -0.598  -0.595
 -0.595  -0.587  -0.583  -0.576  -0.573  -0.573  -0.571  -0.563
 -0.552  -0.551  -0.540  -0.539  -0.527  -0.522  -0.520  -0.511
 -0.509  -0.508  -0.499  -0.497  -0.495  -0.486  -0.480  -0.477
 -0.474  -0.470  -0.467  -0.462  -0.461  -0.461  -0.450  -0.449
 -0.447  -0.444  -0.440  -0.437  -0.436  -0.433  -0.429  -0.426
 -0.426  -0.424  -0.420  -0.419  -0.417  -0.415  -0.414  -0.414
 -0.411  -0.410  -0.407  -0.407  -0.400  -0.398  -0.397  -0.394
 -0.392  -0.389  -0.388  -0.387  -0.386  -0.383  -0.381  -0.379
 -0.376  -0.373  -0.369  -0.368  -0.364  -0.361  -0.359  -0.356
 -0.355  -0.353  -0.353  -0.349  -0.347  -0.344  -0.342  -0.340
 -0.339  -0.336  -0.334  -0.333  -0.331  -0.320  -0.318  -0.317
 -0.315  -0.312  -0.311  -0.307  -0.307  -0.306  -0.302  -0.300
 -0.297  -0.295  -0.292  -0.289  -0.286  -0.285  -0.283  -0.280
 -0.279  -0.269  -0.261  -0.260  -0.256  -0.255  -0.253  -0.249
 -0.245  -0.242  -0.237  -0.231  -0.195  -0.193

          Ground-State Mulliken Net Atomic Charges

     Atom                 Charge (a.u.)
  ----------------------------------------
      1 C                     0.280864
      2 C                    -0.098699
      3 N                    -0.484681
      4 C                    -0.071316
      5 C                     0.099292
      6 C                     0.027502
      7 C                    -0.022238
      8 C                     0.070684
      9 C                     0.219004
     10 N                    -0.508900
     11 N                    -0.544343
     12 C                     0.202641
     13 C                     0.300809
     14 S                     0.632515
     15 N                    -0.549302
     16 C                    -0.241402
     17 S                     0.323614
     18 C                    -0.095173
     19 C                    -0.220924
     20 S                     0.291288
     21 C                     0.127284
     22 C                     0.049494
     23 C                    -0.313836
     24 C                    -0.057283
     25 N                    -0.418192
     26 S                     0.276647
     27 C                     0.111736
     28 C                    -0.304032
     29 C                    -0.232821
     30 H                     0.101962
     31 H                     0.095113
     32 H                     0.117242
     33 H                     0.111638
     34 H                     0.129757
     35 H                     0.124133
     36 H                     0.111535
     37 H                     0.136817
     38 H                     0.117200
     39 C                    -0.184359
     40 H                     0.087012
     41 H                     0.093391
     42 H                     0.093153
     43 C                    -0.173564
     44 H                     0.104895
     45 C                    -0.175029
     46 H                     0.099304
     47 H                     0.091113
     48 H                     0.093906
     49 C                    -0.188092
     50 H                     0.094465
     51 C                    -0.319355
     52 H                     0.095217
     53 H                     0.099196
     54 H                     0.101651
     55 H                     0.099771
     56 C                     0.282434
     57 C                    -0.128244
     58 N                    -0.489523
     59 C                    -0.098744
     60 C                     0.074737
     61 C                     0.055776
     62 C                     0.054879
     63 C                     0.069044
     64 C                     0.190409
     65 N                    -0.515993
     66 N                    -0.542595
     67 C                     0.228315
     68 C                     0.261293
     69 S                     0.616587
     70 N                    -0.563839
     71 C                    -0.203986
     72 S                     0.363764
     73 C                    -0.107468
     74 C                    -0.220643
     75 S                     0.269869
     76 C                     0.118656
     77 C                     0.068391
     78 C                    -0.300913
     79 C                    -0.064583
     80 N                    -0.427936
     81 S                     0.253920
     82 C                     0.117414
     83 C                    -0.299699
     84 C                    -0.231214
     85 H                     0.104403
     86 H                     0.100434
     87 H                     0.097336
     88 H                     0.115906
     89 H                     0.124556
     90 H                     0.113199
     91 H                     0.109407
     92 H                     0.136015
     93 H                     0.121063
     94 C                    -0.202015
     95 H                     0.129151
     96 H                     0.098933
     97 H                     0.113640
     98 C                    -0.189175
     99 H                     0.092539
    100 C                    -0.170224
    101 H                     0.094951
    102 H                     0.089468
    103 H                     0.085926
    104 C                    -0.188737
    105 H                     0.094141
    106 C                    -0.320763
    107 H                     0.094516
    108 H                     0.105703
    109 H                     0.107973
    110 H                     0.103244
  ----------------------------------------
  Sum of atomic charges =     0.000000

                    Cartesian Multipole Moments
 -----------------------------------------------------------------
    Charge (ESU x 10^10)
                 0.0000
    Dipole Moment (Debye)
         X       0.8498      Y      -2.0593      Z      -0.1057
       Tot       2.2303
    Quadrupole Moments (Debye-Ang)
        XX    -408.3454     XY     -15.3986     YY    -419.7817
        XZ      20.8210     YZ      20.7624     ZZ    -444.9341

 Total job time:  102.40s(wall), 1100.98s(cpu)
        *  Thank you very much for using Q-Chem.  Have a nice day.  *
