 Q-Chem 4.4, Q-Chem, Inc., Pleasanton, CA (2016)
 Q-Chem 4.4.2 for Intel X86 Linux

User input:
--------------------------------------------------------------
$comment
SP
$end

$rem
MEM_STATIC 5000
MEM_TOTAL 20000
JOBTYPE SP
EXCHANGE B3LYP
BASIS 6-31g(d,p)
$end

$molecule
0 1
C           4.464000     13.625000     -0.728000
C           5.531000     14.471000     -0.757000
N           4.503000     12.507000     -1.471000
C           6.666000     14.200000     -1.511000
C           5.657000     12.203000     -2.164000
C           6.766000     13.002000     -2.324000
C           7.915000     12.550000     -3.140000
C           8.656000     13.553000     -3.763000
C           8.297000     11.199000     -3.407000
N           9.721000     13.297000     -4.599000
N           7.843000     10.111000     -2.802000
C           9.326000     10.971000     -4.282000
C          10.078000     12.015000     -4.868000
S           8.674000      8.875000     -3.353000
N           9.632000      9.607000     -4.466000
C          11.193000     11.807000     -5.809000
S          11.849000     10.268000     -6.390000
C          12.025000     12.787000     -6.294000
C          13.223000     11.013000     -7.208000
S          11.891000     14.536000     -6.131000
C          13.095000     12.369000     -7.080000
C          14.443000     10.355000     -7.501000
C          13.581000     14.616000     -6.811000
C          13.983000     13.435000     -7.324000
N          14.639000      9.251000     -6.806000
S          15.719000     10.837000     -8.560000
C          15.929000      8.800000     -7.010000
C          16.588000      9.469000     -7.999000
C           3.227000     13.790000      0.146000
H           5.518000     15.390000     -0.178000
H           7.478000     14.918000     -1.452000
H           5.522000     11.272000     -2.712000
H           8.302000     14.582000     -3.802000
H          14.055000     15.570000     -7.000000
H          14.937000     13.363000     -7.833000
H          16.360000      7.993000     -6.433000
H          17.530000      9.149000     -8.426000
H           3.283000     13.033000      0.938000
C           1.837000     13.800000     -0.549000
H           3.345000     14.778000      0.610000
H           1.922000     13.202000     -1.465000
H           1.549000     14.802000     -0.891000
C           0.711000     13.211000      0.300000
H           0.973000     12.305000      0.860000
C          -0.580000     12.886000     -0.531000
H           0.486000     13.993000      1.035000
H          -0.438000     12.114000     -1.298000
H          -0.817000     13.716000     -1.208000
C          -1.879000     12.639000      0.223000
H          -1.722000     12.069000      1.148000
C          -2.999000     12.040000     -0.678000
H          -2.207000     13.597000      0.643000
H          -3.485000     12.787000     -1.317000
H          -3.866000     11.739000     -0.077000
H          -2.734000     11.137000     -1.241000
C           0.854000     13.709000    -14.705000
C           1.173000     12.737000    -13.773000
N           1.693000     14.681000    -15.094000
C           2.420000     12.855000    -13.135000
C           2.891000     14.771000    -14.556000
C           3.294000     13.847000    -13.557000
C           4.785000     13.877000    -13.026000
C           5.848000     13.795000    -13.942000
C           5.110000     13.950000    -11.638000
N           7.169000     13.897000    -13.628000
N           4.290000     14.041000    -10.590000
C           6.473000     14.087000    -11.313000
C           7.459000     13.998000    -12.299000
S           5.310000     13.999000     -9.293000
N           6.736000     14.204000    -10.007000
C           8.849000     14.280000    -11.941000
S           9.492000     15.389000    -10.655000
C           9.938000     13.800000    -12.555000
C          11.224000     15.033000    -10.913000
S           9.951000     12.494000    -13.750000
C          11.190000     14.093000    -11.915000
C          12.321000     15.740000    -10.276000
C          11.740000     12.655000    -13.723000
C          12.229000     13.453000    -12.664000
N          13.580000     15.470000    -10.621000
S          12.144000     16.918000     -8.978000
C          14.424000     16.273000     -9.855000
C          13.886000     17.196000     -9.011000
C          -0.469000     13.601000    -15.498000
H           0.492000     11.913000    -13.575000
H           2.835000     12.151000    -12.420000
H           3.500000     15.624000    -14.854000
H           5.712000     14.016000    -14.999000
H          12.346000     12.203000    -14.498000
H          13.281000     13.632000    -12.473000
H          15.486000     16.111000     -9.985000
H          14.305000     17.952000     -8.360000
H          -0.282000     13.573000    -16.578000
C          -1.368000     14.798000    -15.234000
H          -0.974000     12.673000    -15.201000
H          -0.862000     15.745000    -15.461000
H          -1.762000     14.885000    -14.214000
C          -2.540000     14.883000    -16.223000
H          -2.302000     14.725000    -17.282000
C          -3.458000     16.176000    -16.059000
H          -3.208000     14.029000    -16.055000
H          -3.405000     16.732000    -15.114000
H          -4.503000     15.844000    -16.099000
C          -3.063000     17.339000    -17.006000
H          -3.488000     18.262000    -16.594000
C          -3.708000     17.084000    -18.417000
H          -1.975000     17.467000    -17.059000
H          -3.218000     17.774000    -19.115000
H          -4.784000     17.245000    -18.275000
H          -3.541000     16.097000    -18.864000
$end

--------------------------------------------------------------

             Standard Nuclear Orientation (Angstroms)
    I     Atom           X                Y                Z
 ----------------------------------------------------------------
    1      C      -1.2844320473     8.0114443043     1.4105062364
    2      C      -2.0156395332     7.3409975997     2.3437172676
    3      N      -1.1501880038     7.4769434113     0.1858506391
    4      C      -2.6459609005     6.1359511868     2.0595692133
    5      C      -1.8332708376     6.3168562367    -0.1174257854
    6      C      -2.5428423254     5.5184416313     0.7502863912
    7      C      -3.1871932561     4.2720992743     0.2793260880
    8      C      -3.3157656167     3.2545594820     1.2234134352
    9      C      -3.6246927743     3.9837820615    -1.0502909081
   10      N      -3.8430028678     2.0153898953     0.9316316391
   11      N      -3.7452373226     4.8442312641    -2.0507813786
   12      C      -4.0967720549     2.7276758796    -1.3255878620
   13      C      -4.2456674023     1.7314607153    -0.3335084691
   14      S      -4.3983374200     4.0686181298    -3.2729689783
   15      N      -4.5141261522     2.5507055448    -2.6606852584
   16      C      -4.7535888159     0.3724180485    -0.5923305460
   17      S      -5.2995575400    -0.3058667916    -2.1344932573
   18      C      -5.0325820680    -0.5738635740     0.3639972514
   19      C      -5.9125826603    -1.7939599673    -1.4121333037
   20      S      -4.6791147754    -0.5441165166     2.0895991712
   21      C      -5.6189842484    -1.7568761511    -0.0764953426
   22      C      -6.9174775551    -2.6144701665    -1.9814857985
   23      C      -5.7509045431    -2.0135174750     2.2200887004
   24      C      -6.0504715819    -2.5375919540     1.0137970567
   25      N      -7.6353810497    -2.0172650068    -2.9132677310
   26      S      -7.3751163498    -4.2280526738    -1.5705122889
   27      C      -8.7059920711    -2.8203691047    -3.2566812555
   28      C      -8.6430058674    -4.0702097007    -2.7145611371
   29      C      -0.6477020097     9.3822319837     1.6023029967
   30      H      -2.1261498148     7.7435266428     3.3465776004
   31      H      -3.2294648697     5.6866944966     2.8570907141
   32      H      -1.6154833155     6.0193851716    -1.1418131929
   33      H      -2.8075706468     3.3023690794     2.1852502795
   34      H      -5.8808236752    -2.5191668283     3.1676923890
   35      H      -6.6142315734    -3.4608971743     0.9500542737
   36      H      -9.5085134033    -2.4764513759    -3.8951318072
   37      H      -9.2834723606    -4.8926243405    -3.0070159735
   38      H      -1.2321162312    10.0994844014     1.0128473265
   39      C       0.8776090473     9.5228618265     1.3398636191
   40      H      -0.7984491297     9.6118068204     2.6652868631
   41      H       1.1556160720     8.7649857066     0.5967479611
   42      H       1.4772112052     9.2826906189     2.2268286935
   43      C       1.2942478578    10.8911681062     0.8015811409
   44      H       0.6248285291    11.3194565855     0.0455872646
   45      C       2.7425058677    10.8990680513     0.1971364969
   46      H       1.2593055600    11.5507274429     1.6768722452
   47      H       2.8654892315    10.2549773523    -0.6828971749
   48      H       3.4355549907    10.3665191327     0.8600637648
   49      C       3.4160062833    12.2429509121    -0.0422419624
   50      H       2.7139053284    13.0005793796    -0.4140313574
   51      C       4.7044673120    12.1299223373    -0.9094759095
   52      H       3.6586780186    12.6723362383     0.9367813623
   53      H       5.5735439757    11.7685651979    -0.3467568230
   54      H       5.0798293083    13.1233859351    -1.1844749124
   55      H       4.5969614436    11.6071029643    -1.8674453201
   56      C       8.7996419590    -1.9177589708    -1.4387144918
   57      C       7.8831122022    -1.1982029000    -2.1852942036
   58      N       8.4650559567    -2.7857516343    -0.4719327464
   59      C       6.5308233798    -1.3250540691    -1.8230778020
   60      C       7.1992268435    -2.9685719054    -0.1604822615
   61      C       6.1869175201    -2.2413382268    -0.8391184015
   62      C       4.6659822360    -2.5776472966    -0.5569941892
   63      C       4.2126489415    -3.9011287943    -0.6935029778
   64      C       3.7078542967    -1.5823417806    -0.1980293136
   65      N       2.9575782038    -4.3390290473    -0.3984067022
   66      N       3.8912394516    -0.2756657968    -0.0032146368
   67      C       2.4182175086    -2.0365431074     0.1376805453
   68      C       2.0638059495    -3.3780898881    -0.0265074018
   69      S       2.3703841924     0.2898927377     0.2993011885
   70      N       1.5617546116    -1.0825137392     0.5181976550
   71      C       0.7614877970    -3.8333434875     0.4598048333
   72      S      -0.2233310831    -3.1966821477     1.8461381669
   73      C       0.0612467763    -4.8746161472    -0.0078817724
   74      C      -1.6228018394    -4.2869612338     1.6319020434
   75      S       0.4098023761    -5.7583697223    -1.5016416635
   76      C      -1.2640435556    -5.0202415162     0.5263015182
   77      C      -2.7393766970    -4.3960283718     2.5540690276
   78      C      -1.0857294853    -6.6903584244    -1.1524246671
   79      C      -1.8837140075    -6.1330848896    -0.1276940148
   80      N      -3.6796608405    -5.3205074352     2.3585947564
   81      S      -3.0246516404    -3.3261386994     3.9243869818
   82      C      -4.6295583232    -5.1976157312     3.3717548630
   83      C      -4.4287962287    -4.2961185310     4.3721079903
   84      C      10.2958195790    -1.8830780540    -1.8274197316
   85      H       8.2073581640    -0.5896211938    -3.0257904042
   86      H       5.6914951081    -0.8665990163    -2.3372888647
   87      H       6.9913715111    -3.6268697776     0.6825681950
   88      H       4.8990165636    -4.7457648921    -0.6848225671
   89      H      -1.2918575979    -7.6172216655    -1.6726176442
   90      H      -2.8355494607    -6.5417024124     0.1920980898
   91      H      -5.4914561313    -5.8480409925     3.3005709611
   92      H      -4.9704981005    -4.0427119290     5.2739074004
   93      H      10.6749607983    -2.8911938278    -2.0326209072
   94      C      11.1433067436    -1.3104101786    -0.7029096114
   95      H      10.4024899791    -1.2725306671    -2.7331080411
   96      H      11.0041410372    -1.8642509507     0.2342495562
   97      H      10.9800643919    -0.2504463076    -0.4726195187
   98      C      12.6458567508    -1.5402827216    -0.9229825304
   99      H      12.9474200381    -2.5441452924    -1.2461056069
  100      C      13.5772904967    -1.0519624072     0.2751174019
  101      H      12.9686575879    -0.9608191939    -1.7969308353
  102      H      13.1603832752    -0.3376776805     0.9968900099
  103      H      14.4192130503    -0.5037831530    -0.1659210536
  104      C      13.9332287947    -2.1781898813     1.2802654530
  105      H      14.2554326773    -1.7011181814     2.2134777821
  106      C      15.1397746094    -3.0065289548     0.7057460223
  107      H      13.0641035159    -2.8067347876     1.5093714340
  108      H      15.2033045951    -3.9238928780     1.3039193862
  109      H      16.0072920218    -2.3385150909     0.7766827318
  110      H      15.0413575880    -3.3713292521    -0.3233807110
 ----------------------------------------------------------------

    9   -5663.4958487321      7.51E-06 Convergence criterion met
 Total energy in the final basis set = -5663.4958487321

                    Orbital Energies (a.u.)
 --------------------------------------------------------------

 Alpha MOs
 -- Occupied --
-88.991 -88.990 -88.931 -88.925 -88.916 -88.915 -88.906 -88.901
-14.392 -14.388 -14.385 -14.379 -14.356 -14.349 -14.347 -14.339
-14.328 -14.323 -10.278 -10.264 -10.264 -10.264 -10.260 -10.256
-10.254 -10.253 -10.244 -10.241 -10.240 -10.239 -10.235 -10.234
-10.233 -10.233 -10.233 -10.229 -10.228 -10.227 -10.227 -10.226
-10.226 -10.225 -10.224 -10.222 -10.219 -10.218 -10.217 -10.216
-10.215 -10.212 -10.212 -10.202 -10.200 -10.197 -10.194 -10.193
-10.187 -10.186 -10.178 -10.178 -10.178 -10.177 -10.175 -10.175
-10.175 -10.173 -10.172 -10.169  -8.047  -8.046  -7.993  -7.986
 -7.975  -7.973  -7.966  -7.960  -6.012  -6.011  -6.006  -6.005
 -6.005  -6.004  -5.957  -5.953  -5.950  -5.950  -5.946  -5.942
 -5.939  -5.938  -5.935  -5.934  -5.931  -5.930  -5.930  -5.927
 -5.924  -5.921  -5.921  -5.916  -1.050  -1.045  -0.974  -0.965
 -0.957  -0.950  -0.947  -0.932  -0.918  -0.910  -0.905  -0.900
 -0.837  -0.834  -0.831  -0.828  -0.813  -0.813  -0.808  -0.805
 -0.803  -0.801  -0.799  -0.795  -0.782  -0.781  -0.768  -0.766
 -0.751  -0.749  -0.740  -0.739  -0.717  -0.712  -0.709  -0.702
 -0.694  -0.689  -0.677  -0.674  -0.658  -0.651  -0.648  -0.643
 -0.640  -0.639  -0.633  -0.622  -0.612  -0.612  -0.599  -0.598
 -0.593  -0.591  -0.584  -0.580  -0.577  -0.575  -0.573  -0.556
 -0.552  -0.544  -0.540  -0.540  -0.523  -0.523  -0.518  -0.516
 -0.508  -0.507  -0.500  -0.499  -0.493  -0.483  -0.479  -0.477
 -0.475  -0.472  -0.468  -0.464  -0.458  -0.457  -0.448  -0.447
 -0.442  -0.439  -0.439  -0.436  -0.435  -0.433  -0.432  -0.430
 -0.426  -0.426  -0.422  -0.419  -0.419  -0.415  -0.414  -0.413
 -0.410  -0.407  -0.405  -0.401  -0.398  -0.395  -0.395  -0.394
 -0.393  -0.391  -0.391  -0.390  -0.387  -0.385  -0.383  -0.383
 -0.379  -0.376  -0.370  -0.369  -0.364  -0.364  -0.356  -0.356
 -0.353  -0.350  -0.349  -0.347  -0.346  -0.346  -0.342  -0.339
 -0.335  -0.332  -0.330  -0.329  -0.327  -0.326  -0.314  -0.314
 -0.313  -0.309  -0.307  -0.305  -0.302  -0.301  -0.301  -0.296
 -0.296  -0.293  -0.291  -0.290  -0.287  -0.286  -0.282  -0.281
 -0.279  -0.273  -0.272  -0.265  -0.256  -0.253  -0.249  -0.246
 -0.243  -0.238  -0.232  -0.231  -0.197  -0.194

          Ground-State Mulliken Net Atomic Charges

     Atom                 Charge (a.u.)
  ----------------------------------------
      1 C                     0.275824
      2 C                    -0.114029
      3 N                    -0.494593
      4 C                    -0.089486
      5 C                     0.051244
      6 C                     0.058801
      7 C                     0.048678
      8 C                     0.047225
      9 C                     0.256965
     10 N                    -0.543091
     11 N                    -0.540742
     12 C                     0.152724
     13 C                     0.329916
     14 S                     0.617464
     15 N                    -0.545590
     16 C                    -0.226568
     17 S                     0.354981
     18 C                    -0.114809
     19 C                    -0.227978
     20 S                     0.267090
     21 C                     0.145112
     22 C                     0.057058
     23 C                    -0.300436
     24 C                    -0.063196
     25 N                    -0.419938
     26 S                     0.284758
     27 C                     0.119493
     28 C                    -0.304841
     29 C                    -0.218269
     30 H                     0.084302
     31 H                     0.097294
     32 H                     0.106917
     33 H                     0.122251
     34 H                     0.112718
     35 H                     0.105462
     36 H                     0.117292
     37 H                     0.131451
     38 H                     0.123698
     39 C                    -0.183158
     40 H                     0.090251
     41 H                     0.121070
     42 H                     0.094713
     43 C                    -0.180165
     44 H                     0.098757
     45 C                    -0.175142
     46 H                     0.090203
     47 H                     0.093736
     48 H                     0.086623
     49 C                    -0.177430
     50 H                     0.090674
     51 C                    -0.329290
     52 H                     0.092788
     53 H                     0.105808
     54 H                     0.098233
     55 H                     0.107751
     56 C                     0.275767
     57 C                    -0.126214
     58 N                    -0.469886
     59 C                    -0.046993
     60 C                     0.080169
     61 C                     0.021020
     62 C                    -0.015303
     63 C                     0.046059
     64 C                     0.260169
     65 N                    -0.466983
     66 N                    -0.555016
     67 C                     0.188429
     68 C                     0.243953
     69 S                     0.605439
     70 N                    -0.520650
     71 C                    -0.181461
     72 S                     0.291834
     73 C                    -0.110370
     74 C                    -0.218876
     75 S                     0.266145
     76 C                     0.134899
     77 C                     0.077776
     78 C                    -0.300993
     79 C                    -0.061435
     80 N                    -0.440683
     81 S                     0.271067
     82 C                     0.125257
     83 C                    -0.317469
     84 C                    -0.213522
     85 H                     0.097404
     86 H                     0.104610
     87 H                     0.108818
     88 H                     0.119343
     89 H                     0.127016
     90 H                     0.126083
     91 H                     0.107812
     92 H                     0.144650
     93 H                     0.116462
     94 C                    -0.167727
     95 H                     0.090947
     96 H                     0.118661
     97 H                     0.095823
     98 C                    -0.186454
     99 H                     0.092322
    100 C                    -0.181310
    101 H                     0.080761
    102 H                     0.085309
    103 H                     0.088140
    104 C                    -0.183373
    105 H                     0.091818
    106 C                    -0.313230
    107 H                     0.100733
    108 H                     0.095875
    109 H                     0.104538
    110 H                     0.102263
  ----------------------------------------
  Sum of atomic charges =     0.000000

                    Cartesian Multipole Moments
 -----------------------------------------------------------------
    Charge (ESU x 10^10)
                 0.0000
    Dipole Moment (Debye)
         X      -2.7412      Y      -0.3129      Z       0.8794
       Tot       2.8958
    Quadrupole Moments (Debye-Ang)
        XX    -417.4332     XY      33.9626     YY    -436.6994
        XZ     -15.6274     YZ      12.1950     ZZ    -422.7789

 Total job time:  85.29s(wall), 917.95s(cpu)
        *  Thank you very much for using Q-Chem.  Have a nice day.  *
