 Q-Chem 4.4, Q-Chem, Inc., Pleasanton, CA (2016)
 Q-Chem 4.4.2 for Intel X86 Linux

User input:
--------------------------------------------------------------
$comment
SP
$end

$rem
MEM_STATIC 5000
MEM_TOTAL 20000
JOBTYPE SP
EXCHANGE B3LYP
BASIS 6-31g(d,p)
$end

$molecule
0 1
C          -9.384000    -14.784000     -6.480000
C          -8.765000    -14.155000     -5.389000
N         -10.680000    -15.144000     -6.307000
C          -9.412000    -13.866000     -4.186000
C         -11.386000    -14.804000     -5.199000
C         -10.773000    -14.186000     -4.054000
C         -11.498000    -13.966000     -2.777000
C         -10.867000    -14.191000     -1.546000
C         -12.914000    -13.660000     -2.630000
N         -11.463000    -14.056000     -0.346000
N         -13.727000    -13.460000     -3.679000
C         -13.477000    -13.464000     -1.402000
C         -12.717000    -13.628000     -0.228000
S         -15.100000    -13.048000     -2.994000
N         -14.748000    -12.943000     -1.411000
C         -13.248000    -13.394000      1.125000
S         -14.826000    -13.764000      1.699000
C         -12.404000    -13.005000      2.129000
C         -14.388000    -13.413000      3.375000
S         -10.782000    -12.473000      2.003000
C         -13.078000    -12.957000      3.351000
C         -15.101000    -13.810000      4.573000
C         -10.948000    -12.227000      3.820000
C         -12.173000    -12.557000      4.363000
N         -14.500000    -13.714000      5.722000
S         -16.634000    -14.579000      4.497000
C         -15.411000    -14.245000      6.706000
C         -16.592000    -14.650000      6.269000
C          -8.641000    -15.172000     -7.747000
H          -7.715000    -13.918000     -5.531000
H          -8.889000    -13.327000     -3.402000
H         -12.347000    -15.309000     -5.116000
H          -9.827000    -14.513000     -1.571000
H         -10.036000    -11.856000      4.268000
H         -12.381000    -12.414000      5.417000
H         -15.130000    -14.233000      7.751000
H         -17.438000    -15.032000      6.825000
H          -7.923000    -15.980000     -7.558000
C          -7.944000    -13.961000     -8.409000
H          -9.432000    -15.534000     -8.415000
H          -7.633000    -14.207000     -9.432000
H          -7.032000    -13.695000     -7.860000
C          -8.835000    -12.708000     -8.379000
H          -9.798000    -12.944000     -8.848000
C          -8.271000    -11.507000     -9.123000
H          -9.064000    -12.413000     -7.347000
H          -9.041000    -10.727000     -9.179000
H          -7.973000    -11.745000    -10.151000
C          -7.040000    -10.792000     -8.571000
H          -6.177000    -11.466000     -8.510000
C          -7.286000    -10.140000     -7.238000
H          -6.735000     -9.998000     -9.264000
H          -6.363000     -9.762000     -6.780000
H          -7.712000    -10.844000     -6.512000
H          -7.949000     -9.278000     -7.385000
C         -14.219000    -15.421000    -15.172000
C         -13.537000    -16.020000    -14.059000
N         -15.286000    -14.671000    -14.939000
C         -14.069000    -15.842000    -12.754000
C         -15.702000    -14.448000    -13.676000
C         -15.168000    -15.027000    -12.506000
C         -15.649000    -14.789000    -11.103000
C         -15.745000    -15.866000    -10.290000
C         -16.091000    -13.529000    -10.601000
N         -16.082000    -15.765000     -9.000000
N         -15.952000    -12.355000    -11.268000
C         -16.589000    -13.460000     -9.293000
C         -16.552000    -14.625000     -8.484000
S         -16.512000    -11.256000    -10.228000
N         -16.851000    -12.207000     -8.935000
C         -16.948000    -14.700000     -7.086000
S         -16.178000    -15.723000     -5.880000
C         -17.979000    -14.013000     -6.501000
C         -17.345000    -15.307000     -4.694000
S         -19.156000    -13.141000     -7.270000
C         -18.228000    -14.287000     -5.182000
C         -17.279000    -15.702000     -3.344000
C         -19.796000    -12.722000     -5.676000
C         -19.245000    -13.446000     -4.691000
N         -16.114000    -16.113000     -2.936000
S         -18.439000    -15.384000     -2.067000
C         -16.139000    -16.258000     -1.567000
C         -17.212000    -15.802000     -0.922000
C         -13.735000    -15.452000    -16.535000
H         -12.550000    -16.466000    -14.141000
H         -13.646000    -16.350000    -11.893000
H         -16.555000    -13.774000    -13.602000
H         -15.431000    -16.799000    -10.754000
H         -20.604000    -12.019000     -5.517000
H         -19.641000    -13.528000     -3.685000
H         -15.291000    -16.715000     -1.073000
H         -17.446000    -15.954000      0.124000
H         -14.334000    -16.148000    -17.135000
C         -12.167000    -15.625000    -16.680000
H         -13.962000    -14.460000    -16.946000
H         -11.839000    -16.643000    -16.433000
H         -11.668000    -14.964000    -15.961000
C         -11.671000    -15.193000    -18.101000
H         -12.243000    -15.722000    -18.873000
C         -10.160000    -15.264000    -18.430000
H         -11.944000    -14.145000    -18.277000
H          -9.935000    -16.295000    -18.729000
H          -9.577000    -15.109000    -17.513000
C          -9.647000    -14.299000    -19.527000
H         -10.403000    -14.232000    -20.319000
C          -8.263000    -14.692000    -20.142000
H          -9.580000    -13.260000    -19.181000
H          -8.263000    -15.777000    -20.301000
H          -7.432000    -14.294000    -19.547000
H          -8.205000    -14.213000    -21.127000
$end

--------------------------------------------------------------

             Standard Nuclear Orientation (Angstroms)
    I     Atom           X                Y                Z
 ----------------------------------------------------------------
    1      C       1.4974640450    -4.2091678001    -1.3460239255
    2      C       0.4631005720    -5.0274615100    -0.8668886524
    3      N       1.1890854954    -2.9016651080    -1.5317236306
    4      C      -0.8163534884    -4.5639657827    -0.5546259133
    5      C      -0.0047486119    -2.3770750325    -1.1558707646
    6      C      -1.0930061513    -3.1937885247    -0.6896169713
    7      C      -2.4524123382    -2.6517564090    -0.4386787229
    8      C      -3.5931996372    -3.3746189035    -0.8131398721
    9      C      -2.7731500567    -1.3189366902     0.0522590666
   10      N      -4.8581628639    -2.9388636954    -0.6600829098
   11      N      -1.8331440526    -0.4333552748     0.4176414266
   12      C      -4.0643183414    -0.9274516529     0.2596064232
   13      C      -5.1358418863    -1.7797238494    -0.0693941780
   14      S      -2.6868132371     0.7831826895     0.9792305156
   15      N      -4.2212913860     0.2489411860     0.9512872396
   16      C      -6.5487766179    -1.4388229368     0.1645460111
   17      S      -7.2874270263     0.1036805551    -0.0130449564
   18      C      -7.4620204417    -2.4344880303     0.3797429907
   19      C      -8.9132549889    -0.5606069694     0.1855161692
   20      S      -7.1688924750    -4.0924588559     0.6879519082
   21      C      -8.7546624167    -1.9119326789     0.4564021650
   22      C     -10.1703460863     0.0667785772    -0.1712629626
   23      C      -9.0006588436    -4.1629887474     0.8588861205
   24      C      -9.6691983798    -2.9700499292     0.6736137139
   25      N     -11.2449164986    -0.6636733505    -0.2198058332
   26      S     -10.2440301052     1.6932819059    -0.7155823426
   27      C     -12.3075806004     0.2010720509    -0.6704702288
   28      C     -11.9955227675     1.4685610585    -0.8845882444
   29      C       2.8551536246    -4.7458930869    -1.7661274506
   30      H       0.7167631683    -6.0787365740    -0.7704053533
   31      H      -1.5537919539    -5.2413797878    -0.1351014498
   32      H      -0.1797821010    -1.3684428421    -1.5266259157
   33      H      -3.4364358493    -4.3486365322    -1.2742513270
   34      H      -9.3534854023    -5.1622116702     1.0760403745
   35      H     -10.7446858007    -2.9011301723     0.7885305291
   36      H     -13.3128377347    -0.1912119794    -0.7523319021
   37      H     -12.6312655536     2.2947542927    -1.1744362210
   38      H       2.7800102581    -5.3568400658    -2.6745360941
   39      C       3.5486488966    -5.5328913730    -0.6302260440
   40      H       3.4400148843    -3.8429419491    -1.9795883364
   41      H       4.6090271289    -5.6917310486    -0.8628931061
   42      H       3.0993976883    -6.5280837007    -0.5222140882
   43      C       3.3701765112    -4.8395547616     0.7307375671
   44      H       3.7330285072    -3.8072431720     0.6552576959
   45      C       4.1300603709    -5.4853401155     1.8794632944
   46      H       2.3085542464    -4.7693843415     1.0000408885
   47      H       4.0681957138    -4.8337589783     2.7604007416
   48      H       5.1936073702    -5.6319944876     1.6567700628
   49      C       3.6983191577    -6.8590515144     2.3872098032
   50      H       3.7621020654    -7.6178627701     1.5979676230
   51      C       2.3229262453    -6.8562664915     2.9961396680
   52      H       4.3924934072    -7.1972597952     3.1665988396
   53      H       1.9611893664    -7.8684059382     3.2181693301
   54      H       1.5787268768    -6.4155603945     2.3207779605
   55      H       2.3607658436    -6.3117541830     3.9481357346
   56      C       9.5898132511     1.5875828613    -0.8506209628
   57      C       8.5856954800     0.8811090240    -1.5958298053
   58      N       9.2078471180     2.5040247587     0.0265985775
   59      C       7.2223344224     1.2362724338    -1.4146156252
   60      C       7.8979416287     2.7432221725     0.2384622277
   61      C       6.8194089455     2.1732248360    -0.4694694693
   62      C       5.3624757259     2.4589089583    -0.2411184766
   63      C       4.5836666481     2.6190376896    -1.3356180014
   64      C       4.7671215811     2.6580353457     1.0398460523
   65      N       3.2605418235     2.7950847813    -1.2567629449
   66      N       5.4024378211     2.4257433458     2.2166636686
   67      C       3.4086890024     2.9950675024     1.1083971606
   68      C       2.6524327830     3.0374398696    -0.0913345233
   69      S       4.2652854680     2.7052568408     3.3265094831
   70      N       2.9773326077     3.0338818472     2.3650761599
   71      C       1.2217062094     3.2849723662    -0.1840390789
   72      S       0.1509139541     2.5426153095    -1.3656375497
   73      C       0.4967941939     4.1365865235     0.6074221626
   74      C      -1.1763990162     3.5012210548    -0.8548966135
   75      S       1.0922770459     5.2531921876     1.6730984568
   76      C      -0.8312646153     4.2767121859     0.3017056306
   77      C      -2.4944079392     3.3454852274    -1.3255130505
   78      C      -0.5792285192     5.6484326570     2.0924445159
   79      C      -1.4668700066     5.1027301092     1.2484638768
   80      N      -2.7497579716     2.2139799751    -1.9146668716
   81      S      -3.9076656231     4.3013245227    -0.9174359002
   82      C      -4.1062653172     2.1098069488    -2.1264375070
   83      C      -4.8871615020     3.0293206483    -1.5607647173
   84      C      10.9998359167     1.2648779353    -0.8767669606
   85      H       8.7974374833    -0.0167589141    -2.1692471836
   86      H       6.4351044465     0.7990274787    -2.0207507704
   87      H       7.7013096793     3.4774482236     1.0192368318
   88      H       5.1145768215     2.4947438874    -2.2774600469
   89      H      -0.8560909274     6.3249491439     2.8912102199
   90      H      -2.5082309197     5.3940941366     1.1694040749
   91      H      -4.4819410934     1.2873085550    -2.7217131602
   92      H      -5.9469501702     3.1670140484    -1.7335782188
   93      H      11.5515748808     2.0194693177    -1.4506946224
   94      C      11.3313037613    -0.2367507084    -1.2573171998
   95      H      11.3453781306     1.3907293602     0.1572910635
   96      H      11.1611744569    -0.4402982796    -2.3224657369
   97      H      10.6511612504    -0.9009610275    -0.7104042114
   98      C      12.7833937721    -0.6313523553    -0.8241831087
   99      H      13.5028925775     0.0915124609    -1.2276641200
  100      C      13.2871959623    -2.0714476994    -1.0863123769
  101      H      12.8883087012    -0.4939643292     0.2592957272
  102      H      13.6476115207    -2.1121666372    -2.1214112096
  103      H      12.4386823675    -2.7673132222    -1.0618408936
  104      C      14.4001933440    -2.5946421810    -0.1454046436
  105      H      15.0965341395    -1.7741217298     0.0670681450
  106      C      15.1849567072    -3.8323735824    -0.6933986596
  107      H      14.0265809284    -2.8474184903     0.8547172992
  108      H      15.3823695692    -3.6593291246    -1.7581003913
  109      H      14.6758669792    -4.7718586264    -0.4460416281
  110      H      16.1519232488    -3.8505341977    -0.1760246174
 ----------------------------------------------------------------

    9   -5663.5161480716      8.16E-06 Convergence criterion met
 Total energy in the final basis set = -5663.5161480716

                    Orbital Energies (a.u.)
 --------------------------------------------------------------

 Alpha MOs
 -- Occupied --
-88.988 -88.981 -88.927 -88.925 -88.923 -88.919 -88.907 -88.904
-14.384 -14.383 -14.382 -14.376 -14.345 -14.342 -14.340 -14.339
-14.325 -14.323 -10.266 -10.265 -10.262 -10.256 -10.255 -10.255
-10.249 -10.243 -10.237 -10.233 -10.233 -10.233 -10.230 -10.230
-10.228 -10.228 -10.226 -10.226 -10.225 -10.224 -10.224 -10.223
-10.223 -10.223 -10.223 -10.219 -10.218 -10.218 -10.217 -10.210
-10.210 -10.208 -10.208 -10.203 -10.200 -10.200 -10.196 -10.193
-10.192 -10.190 -10.186 -10.185 -10.182 -10.182 -10.180 -10.176
-10.175 -10.173 -10.173 -10.168  -8.044  -8.037  -7.988  -7.984
 -7.982  -7.981  -7.970  -7.964  -6.009  -6.004  -6.002  -6.001
 -5.996  -5.995  -5.952  -5.949  -5.949  -5.947  -5.946  -5.945
 -5.945  -5.943  -5.942  -5.941  -5.939  -5.938  -5.935  -5.931
 -5.928  -5.926  -5.925  -5.920  -1.046  -1.043  -0.981  -0.966
 -0.963  -0.958  -0.940  -0.929  -0.929  -0.913  -0.908  -0.905
 -0.860  -0.840  -0.837  -0.829  -0.814  -0.811  -0.810  -0.806
 -0.804  -0.801  -0.798  -0.793  -0.785  -0.781  -0.772  -0.767
 -0.755  -0.751  -0.744  -0.740  -0.731  -0.718  -0.716  -0.711
 -0.698  -0.695  -0.677  -0.670  -0.659  -0.653  -0.651  -0.640
 -0.637  -0.637  -0.627  -0.623  -0.616  -0.609  -0.599  -0.598
 -0.598  -0.587  -0.586  -0.583  -0.576  -0.576  -0.573  -0.552
 -0.549  -0.548  -0.540  -0.537  -0.528  -0.523  -0.522  -0.511
 -0.508  -0.503  -0.501  -0.499  -0.486  -0.486  -0.478  -0.475
 -0.473  -0.471  -0.469  -0.465  -0.464  -0.462  -0.456  -0.453
 -0.451  -0.445  -0.441  -0.438  -0.437  -0.435  -0.434  -0.430
 -0.429  -0.428  -0.426  -0.422  -0.420  -0.417  -0.417  -0.416
 -0.411  -0.410  -0.408  -0.406  -0.399  -0.396  -0.396  -0.395
 -0.395  -0.392  -0.391  -0.390  -0.385  -0.383  -0.382  -0.377
 -0.375  -0.373  -0.372  -0.371  -0.370  -0.367  -0.362  -0.358
 -0.356  -0.354  -0.353  -0.348  -0.347  -0.344  -0.342  -0.342
 -0.340  -0.338  -0.337  -0.335  -0.335  -0.332  -0.319  -0.317
 -0.317  -0.317  -0.315  -0.315  -0.309  -0.306  -0.303  -0.302
 -0.298  -0.295  -0.289  -0.288  -0.285  -0.284  -0.283  -0.279
 -0.270  -0.269  -0.266  -0.263  -0.257  -0.253  -0.248  -0.243
 -0.242  -0.238  -0.235  -0.228  -0.195  -0.193

          Ground-State Mulliken Net Atomic Charges

     Atom                 Charge (a.u.)
  ----------------------------------------
      1 C                     0.276761
      2 C                    -0.120103
      3 N                    -0.488716
      4 C                    -0.077725
      5 C                     0.085102
      6 C                     0.020965
      7 C                     0.054258
      8 C                     0.047793
      9 C                     0.204304
     10 N                    -0.516306
     11 N                    -0.519330
     12 C                     0.169891
     13 C                     0.266000
     14 S                     0.632088
     15 N                    -0.542747
     16 C                    -0.196586
     17 S                     0.307992
     18 C                    -0.078717
     19 C                    -0.247486
     20 S                     0.257535
     21 C                     0.140098
     22 C                     0.105614
     23 C                    -0.300759
     24 C                    -0.045152
     25 N                    -0.461999
     26 S                     0.237065
     27 C                     0.117009
     28 C                    -0.293786
     29 C                    -0.229791
     30 H                     0.081337
     31 H                     0.104779
     32 H                     0.128427
     33 H                     0.107680
     34 H                     0.120664
     35 H                     0.129711
     36 H                     0.111943
     37 H                     0.133136
     38 H                     0.114707
     39 C                    -0.186243
     40 H                     0.123278
     41 H                     0.098288
     42 H                     0.095311
     43 C                    -0.175333
     44 H                     0.099853
     45 C                    -0.174826
     46 H                     0.106282
     47 H                     0.086152
     48 H                     0.084235
     49 C                    -0.176831
     50 H                     0.086848
     51 C                    -0.313353
     52 H                     0.090949
     53 H                     0.095495
     54 H                     0.100895
     55 H                     0.101997
     56 C                     0.281256
     57 C                    -0.121971
     58 N                    -0.486620
     59 C                    -0.105020
     60 C                     0.074585
     61 C                     0.055734
     62 C                     0.052795
     63 C                     0.066175
     64 C                     0.198152
     65 N                    -0.515089
     66 N                    -0.532594
     67 C                     0.229794
     68 C                     0.261741
     69 S                     0.605183
     70 N                    -0.551051
     71 C                    -0.194336
     72 S                     0.371496
     73 C                    -0.105963
     74 C                    -0.230046
     75 S                     0.271357
     76 C                     0.119612
     77 C                     0.063959
     78 C                    -0.300045
     79 C                    -0.066460
     80 N                    -0.431530
     81 S                     0.253622
     82 C                     0.104487
     83 C                    -0.285179
     84 C                    -0.231452
     85 H                     0.093533
     86 H                     0.097649
     87 H                     0.101839
     88 H                     0.113712
     89 H                     0.125242
     90 H                     0.113906
     91 H                     0.115564
     92 H                     0.142576
     93 H                     0.123281
     94 C                    -0.198324
     95 H                     0.130586
     96 H                     0.098546
     97 H                     0.105017
     98 C                    -0.188516
     99 H                     0.093618
    100 C                    -0.171117
    101 H                     0.095285
    102 H                     0.089726
    103 H                     0.089225
    104 C                    -0.188569
    105 H                     0.093961
    106 C                    -0.321119
    107 H                     0.094645
    108 H                     0.105922
    109 H                     0.109106
    110 H                     0.103459
  ----------------------------------------
  Sum of atomic charges =     0.000000

                    Cartesian Multipole Moments
 -----------------------------------------------------------------
    Charge (ESU x 10^10)
                 0.0000
    Dipole Moment (Debye)
         X      -0.8957      Y      -0.0999      Z       0.6243
       Tot       1.0964
    Quadrupole Moments (Debye-Ang)
        XX    -405.3233     XY     -33.4724     YY    -416.6119
        XZ       0.6706     YZ       4.5835     ZZ    -445.1784

 Total job time:  91.08s(wall), 985.64s(cpu)
        *  Thank you very much for using Q-Chem.  Have a nice day.  *
