 Q-Chem 4.4, Q-Chem, Inc., Pleasanton, CA (2016)
 Q-Chem 4.4.2 for Intel X86 Linux

User input:
--------------------------------------------------------------
$comment
SP
$end

$rem
MEM_STATIC 5000
MEM_TOTAL 20000
JOBTYPE SP
EXCHANGE B3LYP
BASIS 6-31g(d,p)
$end

$molecule
0 1
C         -16.861000    -19.587000    -14.260000
C         -17.081000    -18.288000    -13.851000
N         -17.311000    -20.662000    -13.617000
C         -18.055000    -18.033000    -12.804000
C         -18.099000    -20.450000    -12.580000
C         -18.560000    -19.189000    -12.110000
C         -19.563000    -19.064000    -11.036000
C         -19.429000    -18.054000    -10.073000
C         -20.616000    -19.990000    -10.922000
N         -20.234000    -18.064000     -8.917000
N         -20.931000    -20.993000    -11.780000
C         -21.478000    -19.923000     -9.881000
C         -21.307000    -18.892000     -8.880000
S         -22.193000    -21.794000    -11.183000
N         -22.387000    -20.905000     -9.847000
C         -22.107000    -19.026000     -7.597000
S         -23.299000    -20.229000     -7.130000
C         -21.909000    -18.136000     -6.540000
C         -23.580000    -19.453000     -5.535000
S         -20.687000    -16.942000     -6.270000
C         -22.715000    -18.390000     -5.428000
C         -24.522000    -20.030000     -4.579000
C         -21.446000    -16.546000     -4.729000
C         -22.419000    -17.453000     -4.405000
N         -24.884000    -19.373000     -3.534000
S         -25.074000    -21.724000     -4.695000
C         -25.654000    -20.167000     -2.694000
C         -25.884000    -21.464000     -3.139000
C         -15.951000    -19.867000    -15.399000
H         -16.618000    -17.390000    -14.250000
H         -18.396000    -17.025000    -12.588000
H         -18.345000    -21.322000    -11.977000
H         -18.639000    -17.305000    -10.081000
H         -20.996000    -15.831000     -4.053000
H         -22.949000    -17.334000     -3.467000
H         -26.124000    -19.726000     -1.825000
H         -26.435000    -22.288000     -2.704000
H         -15.160000    -19.110000    -15.466000
C         -16.607000    -20.236000    -16.675000
H         -15.405000    -20.768000    -15.092000
H         -17.035000    -19.356000    -17.172000
H         -17.461000    -20.897000    -16.483000
C         -15.726000    -20.932000    -17.719000
H         -14.976000    -20.232000    -18.108000
C         -16.541000    -21.481000    -18.954000
H         -15.130000    -21.682000    -17.185000
H         -17.047000    -20.701000    -19.537000
H         -17.382000    -22.090000    -18.599000
C         -15.723000    -22.371000    -19.915000
H         -14.806000    -21.800000    -20.107000
C         -16.452000    -22.928000    -21.218000
H         -15.296000    -23.214000    -19.358000
H         -17.333000    -23.521000    -20.943000
H         -15.779000    -23.529000    -21.841000
H         -16.861000    -22.064000    -21.758000
C         -14.219000    -15.421000    -15.172000
C         -13.537000    -16.020000    -14.059000
N         -15.286000    -14.671000    -14.939000
C         -14.069000    -15.842000    -12.754000
C         -15.702000    -14.448000    -13.676000
C         -15.168000    -15.027000    -12.506000
C         -15.649000    -14.789000    -11.103000
C         -15.745000    -15.866000    -10.290000
C         -16.091000    -13.529000    -10.601000
N         -16.082000    -15.765000     -9.000000
N         -15.952000    -12.355000    -11.268000
C         -16.589000    -13.460000     -9.293000
C         -16.552000    -14.625000     -8.484000
S         -16.512000    -11.256000    -10.228000
N         -16.851000    -12.207000     -8.935000
C         -16.948000    -14.700000     -7.086000
S         -16.178000    -15.723000     -5.880000
C         -17.979000    -14.013000     -6.501000
C         -17.345000    -15.307000     -4.694000
S         -19.156000    -13.141000     -7.270000
C         -18.228000    -14.287000     -5.182000
C         -17.279000    -15.702000     -3.344000
C         -19.796000    -12.722000     -5.676000
C         -19.245000    -13.446000     -4.691000
N         -16.114000    -16.113000     -2.936000
S         -18.439000    -15.384000     -2.067000
C         -16.139000    -16.258000     -1.567000
C         -17.212000    -15.802000     -0.922000
C         -13.735000    -15.452000    -16.535000
H         -12.550000    -16.466000    -14.141000
H         -13.646000    -16.350000    -11.893000
H         -16.555000    -13.774000    -13.602000
H         -15.431000    -16.799000    -10.754000
H         -20.604000    -12.019000     -5.517000
H         -19.641000    -13.528000     -3.685000
H         -15.291000    -16.715000     -1.073000
H         -17.446000    -15.954000      0.124000
H         -14.334000    -16.148000    -17.135000
C         -12.167000    -15.625000    -16.680000
H         -13.962000    -14.460000    -16.946000
H         -11.839000    -16.643000    -16.433000
H         -11.668000    -14.964000    -15.961000
C         -11.671000    -15.193000    -18.101000
H         -12.243000    -15.722000    -18.873000
C         -10.160000    -15.264000    -18.430000
H         -11.944000    -14.145000    -18.277000
H          -9.935000    -16.295000    -18.729000
H          -9.577000    -15.109000    -17.513000
C          -9.647000    -14.299000    -19.527000
H         -10.403000    -14.232000    -20.319000
C          -8.263000    -14.692000    -20.142000
H          -9.580000    -13.260000    -19.181000
H          -8.263000    -15.777000    -20.301000
H          -7.432000    -14.294000    -19.547000
H          -8.205000    -14.213000    -21.127000
$end

--------------------------------------------------------------

             Standard Nuclear Orientation (Angstroms)
    I     Atom           X                Y                Z
 ----------------------------------------------------------------
    1      C      -4.2024060015     2.7961127427     0.6852657145
    2      C      -3.8073062219     1.7490110426    -0.1213049232
    3      N      -3.3635801325     3.6195999540     1.3096165569
    4      C      -2.4162183976     1.6583300671    -0.5294245449
    5      C      -2.0784057588     3.4710793549     1.0497599411
    6      C      -1.5007302566     2.5536779499     0.1287780322
    7      C      -0.0645962962     2.5685168671    -0.2064965631
    8      C       0.6224822965     1.3585124117    -0.3774855262
    9      C       0.6440802990     3.7811697574    -0.2873139565
   10      N       2.0285592509     1.3464460168    -0.4627087656
   11      N       0.1421445192     5.0389895348    -0.2015941778
   12      C       1.9798273099     3.7813228927    -0.5040947199
   13      C       2.6779949627     2.5220083495    -0.6486347137
   14      S       1.3633271867     6.0814857093    -0.3137040287
   15      N       2.5468055589     4.9937134334    -0.4839492001
   16      C       4.1948315208     2.5562197431    -0.6030119502
   17      S       5.2898278533     3.9230596830    -0.4655579202
   18      C       4.9330265229     1.3715802639    -0.6188373523
   19      C       6.7440335700     2.8708152614    -0.5223858244
   20      S       4.4433619364    -0.2780745535    -0.4436586547
   21      C       6.3152369720     1.5655668940    -0.5682462301
   22      C       8.0844933438     3.4426889590    -0.4206161388
   23      C       6.1280725879    -0.7717411142    -0.6037253517
   24      C       6.9698044223     0.3071541053    -0.5609863254
   25      N       9.1249101641     2.7288636057    -0.6710242160
   26      S       8.3706601351     5.0807627977     0.2294751366
   27      C      10.2866880051     3.4244085220    -0.3621140067
   28      C      10.1024129565     4.7129613227     0.1265662429
   29      C      -5.6353965090     2.9730919174     1.0302839418
   30      H      -4.4383330796     0.9652319652    -0.5305352528
   31      H      -2.1037465867     0.9704351619    -1.3092725858
   32      H      -1.3931925438     4.0480102146     1.6679368035
   33      H       0.1533075584     0.3777814445    -0.3208566019
   34      H       6.4192424776    -1.8073899681    -0.4881721309
   35      H       8.0380742264     0.1359671086    -0.6273160901
   36      H      11.2479360938     2.9986837389    -0.6176575861
   37      H      10.8071085731     5.4708641731     0.4440396391
   38      H      -6.1552323308     2.0076226695     1.0595900821
   39      C      -6.3396090526     4.0690767481     0.3248940183
   40      H      -5.6226853022     3.2786604146     2.0841493596
   41      H      -6.5745752815     3.7903463571    -0.7103321601
   42      H      -5.6856644429     4.9457126962     0.2414262881
   43      C      -7.6554114062     4.5479653207     0.9492680259
   44      H      -8.4216025683     3.7675271552     0.8615846589
   45      C      -8.2304889452     5.8493444400     0.2662239483
   46      H      -7.4860915453     4.6264208983     2.0300304915
   47      H      -8.4909026519     5.7199626428    -0.7919679303
   48      H      -7.4488807589     6.6183286820     0.2221912457
   49      C      -9.4325116774     6.4798581406     1.0026605203
   50      H     -10.1155597062     5.6408495672     1.1851543667
   51      C     -10.1105736720     7.7688868281     0.3560261767
   52      H      -9.1483783091     6.7080691195     2.0372691313
   53      H      -9.3757537304     8.5756706820     0.2438902473
   54      H     -10.9650856155     8.1234563746     0.9445402166
   55      H     -10.3911246927     7.5088808894    -0.6730826789
   56      C      -6.6035675061    -1.4417956799    -0.5155755032
   57      C      -6.0003673894    -1.7399181642     0.7532690908
   58      N      -5.8741442374    -1.5656018007    -1.6146167851
   59      C      -4.6248782864    -2.0925073725     0.7912635324
   60      C      -4.5985695178    -1.9966181248    -1.5432861246
   61      C      -3.8690356489    -2.2559631816    -0.3643809224
   62      C      -2.4414361846    -2.7175854740    -0.2917267515
   63      C      -1.6490665640    -2.1364758292     0.6380990198
   64      C      -1.8469341610    -3.6558235801    -1.1868494249
   65      N      -0.3867634445    -2.5232766064     0.8498677452
   66      N      -2.5443837723    -4.3884450237    -2.0920101068
   67      C      -0.4814865015    -3.9423773450    -1.0562024623
   68      C       0.2407764070    -3.3594156336     0.0169084052
   69      S      -1.4249747174    -5.3420376435    -2.7557762428
   70      N      -0.1044500305    -4.9133955427    -1.8819046844
   71      C       1.6348434041    -3.6198971311     0.3418262363
   72      S       2.2912344196    -3.6688579205     1.9729665356
   73      C       2.6448093457    -3.8443290352    -0.5563686853
   74      C       3.8945488976    -3.8376490106     1.3877885690
   75      S       2.5826525207    -3.6334086875    -2.1961013269
   76      C       3.9038369451    -3.9961183520    -0.0380565137
   77      C       5.0170957325    -4.0678969701     2.2061744687
   78      C       4.2470235122    -4.2253594393    -2.2699965900
   79      C       4.8191027649    -4.3120692476    -1.0603649362
   80      N       4.7575950142    -4.4956253230     3.4071398443
   81      S       6.6984163153    -4.1981789020     1.7228105107
   82      C       5.9319576781    -4.8803275777     4.0143362779
   83      C       7.0269872442    -4.9265992615     3.2566693454
   84      C      -8.0098217667    -1.1570736508    -0.7009624516
   85      H      -6.5754614213    -1.8672025531     1.6658886933
   86      H      -4.0998634775    -2.2351775967     1.7305817200
   87      H      -4.1138957491    -2.1114741542    -2.5124406172
   88      H      -2.1599056453    -1.4005831447     1.2560685903
   89      H       4.7776810572    -4.4173135620    -3.1940691979
   90      H       5.8832594175    -4.4211290566    -0.8835809527
   91      H       5.9172575430    -5.1426888743     5.0645455219
   92      H       8.0416262851    -5.0789443584     3.6020308778
   93      H      -8.1580616808    -0.0884382259    -0.8991044621
   94      C      -8.9636634197    -1.7689629271     0.4059953682
   95      H      -8.2859079355    -1.6572110214    -1.6380606524
   96      H      -8.8785524884    -1.2391211136     1.3635656173
   97      H      -8.6597312574    -2.8037644597     0.6052289715
   98      C     -10.4492580943    -1.8276926121    -0.0853703685
   99      H     -10.7655605872    -0.8382368087    -0.4374200043
  100      C     -11.5328626634    -2.4210449401     0.8474410555
  101      H     -10.5055939936    -2.4352957217    -0.9972112140
  102      H     -11.8518792691    -1.6252233757     1.5314611157
  103      H     -11.0808712900    -3.1801810829     1.4987621093
  104      C     -12.7822644953    -3.0223140647     0.1580402270
  105      H     -13.0477145949    -2.3935669999    -0.7007393566
  106      C     -14.0220264338    -3.1947296900     1.0968656569
  107      H     -12.5806149400    -3.9908228603    -0.3163585184
  108      H     -14.0996544160    -2.2943900008     1.7180486737
  109      H     -13.9869093617    -4.1488533946     1.6366848374
  110      H     -14.9078898399    -3.2288060434     0.4510213817
 ----------------------------------------------------------------

    9   -5663.5265157268      7.39E-06 Convergence criterion met
 Total energy in the final basis set = -5663.5265157268

                    Orbital Energies (a.u.)
 --------------------------------------------------------------

 Alpha MOs
 -- Occupied --
-88.991 -88.990 -88.925 -88.924 -88.920 -88.920 -88.907 -88.900
-14.388 -14.386 -14.377 -14.374 -14.353 -14.348 -14.341 -14.338
-14.330 -14.325 -10.268 -10.265 -10.265 -10.263 -10.260 -10.258
-10.247 -10.246 -10.243 -10.239 -10.238 -10.238 -10.234 -10.234
-10.233 -10.232 -10.232 -10.229 -10.226 -10.223 -10.223 -10.222
-10.222 -10.220 -10.220 -10.220 -10.218 -10.216 -10.215 -10.214
-10.213 -10.212 -10.207 -10.206 -10.203 -10.200 -10.196 -10.195
-10.189 -10.188 -10.184 -10.183 -10.181 -10.179 -10.178 -10.178
-10.177 -10.177 -10.173 -10.173  -8.047  -8.045  -7.987  -7.984
 -7.981  -7.979  -7.970  -7.960  -6.012  -6.010  -6.007  -6.005
 -6.005  -6.003  -5.951  -5.948  -5.947  -5.945  -5.944  -5.943
 -5.943  -5.941  -5.941  -5.940  -5.938  -5.936  -5.934  -5.930
 -5.925  -5.924  -5.921  -5.916  -1.046  -1.044  -0.979  -0.969
 -0.967  -0.946  -0.946  -0.941  -0.928  -0.911  -0.907  -0.897
 -0.860  -0.841  -0.839  -0.833  -0.814  -0.810  -0.808  -0.807
 -0.803  -0.801  -0.798  -0.786  -0.784  -0.778  -0.774  -0.761
 -0.755  -0.747  -0.744  -0.735  -0.730  -0.719  -0.718  -0.704
 -0.701  -0.690  -0.678  -0.670  -0.662  -0.654  -0.654  -0.644
 -0.639  -0.632  -0.630  -0.623  -0.611  -0.609  -0.601  -0.598
 -0.592  -0.589  -0.587  -0.579  -0.577  -0.575  -0.574  -0.573
 -0.555  -0.546  -0.540  -0.534  -0.530  -0.524  -0.520  -0.513
 -0.509  -0.507  -0.504  -0.494  -0.490  -0.483  -0.480  -0.476
 -0.474  -0.473  -0.471  -0.468  -0.465  -0.460  -0.455  -0.453
 -0.446  -0.444  -0.441  -0.438  -0.434  -0.433  -0.431  -0.429
 -0.427  -0.424  -0.424  -0.422  -0.421  -0.419  -0.416  -0.414
 -0.412  -0.409  -0.407  -0.405  -0.402  -0.401  -0.397  -0.397
 -0.396  -0.394  -0.392  -0.391  -0.386  -0.385  -0.382  -0.378
 -0.376  -0.375  -0.373  -0.370  -0.370  -0.363  -0.361  -0.360
 -0.354  -0.349  -0.348  -0.346  -0.346  -0.345  -0.342  -0.342
 -0.339  -0.338  -0.334  -0.330  -0.328  -0.322  -0.321  -0.320
 -0.319  -0.319  -0.311  -0.308  -0.307  -0.304  -0.301  -0.301
 -0.298  -0.295  -0.291  -0.289  -0.286  -0.285  -0.284  -0.279
 -0.273  -0.270  -0.268  -0.263  -0.256  -0.254  -0.253  -0.249
 -0.243  -0.241  -0.239  -0.228  -0.195  -0.191

          Ground-State Mulliken Net Atomic Charges

     Atom                 Charge (a.u.)
  ----------------------------------------
      1 C                     0.268882
      2 C                    -0.126513
      3 N                    -0.470474
      4 C                    -0.096814
      5 C                     0.106454
      6 C                     0.027050
      7 C                     0.021380
      8 C                     0.050108
      9 C                     0.251468
     10 N                    -0.513201
     11 N                    -0.559407
     12 C                     0.205763
     13 C                     0.307417
     14 S                     0.611718
     15 N                    -0.568828
     16 C                    -0.228994
     17 S                     0.323538
     18 C                    -0.136827
     19 C                    -0.255160
     20 S                     0.305879
     21 C                     0.191752
     22 C                     0.081695
     23 C                    -0.308479
     24 C                    -0.074830
     25 N                    -0.430821
     26 S                     0.249329
     27 C                     0.114286
     28 C                    -0.304645
     29 C                    -0.228401
     30 H                     0.106908
     31 H                     0.103538
     32 H                     0.099985
     33 H                     0.130544
     34 H                     0.118920
     35 H                     0.116095
     36 H                     0.113842
     37 H                     0.137894
     38 H                     0.092279
     39 C                    -0.170631
     40 H                     0.112929
     41 H                     0.089634
     42 H                     0.111701
     43 C                    -0.182931
     44 H                     0.088019
     45 C                    -0.176741
     46 H                     0.093541
     47 H                     0.090719
     48 H                     0.092145
     49 C                    -0.181760
     50 H                     0.087891
     51 C                    -0.324505
     52 H                     0.092415
     53 H                     0.106944
     54 H                     0.107355
     55 H                     0.104018
     56 C                     0.277615
     57 C                    -0.118847
     58 N                    -0.485547
     59 C                    -0.107088
     60 C                     0.062607
     61 C                     0.061730
     62 C                     0.049727
     63 C                     0.054667
     64 C                     0.195891
     65 N                    -0.518321
     66 N                    -0.535458
     67 C                     0.230156
     68 C                     0.258752
     69 S                     0.606772
     70 N                    -0.547248
     71 C                    -0.190973
     72 S                     0.370881
     73 C                    -0.102004
     74 C                    -0.215022
     75 S                     0.279114
     76 C                     0.113991
     77 C                     0.070781
     78 C                    -0.295861
     79 C                    -0.072435
     80 N                    -0.427345
     81 S                     0.253596
     82 C                     0.117933
     83 C                    -0.301650
     84 C                    -0.234305
     85 H                     0.097483
     86 H                     0.098869
     87 H                     0.103260
     88 H                     0.119872
     89 H                     0.125726
     90 H                     0.109241
     91 H                     0.110843
     92 H                     0.136895
     93 H                     0.124987
     94 C                    -0.198485
     95 H                     0.132049
     96 H                     0.099365
     97 H                     0.105521
     98 C                    -0.189062
     99 H                     0.094346
    100 C                    -0.171887
    101 H                     0.095717
    102 H                     0.090589
    103 H                     0.089717
    104 C                    -0.188773
    105 H                     0.094188
    106 C                    -0.321041
    107 H                     0.094818
    108 H                     0.106263
    109 H                     0.109494
    110 H                     0.103826
  ----------------------------------------
  Sum of atomic charges =     0.000000

                    Cartesian Multipole Moments
 -----------------------------------------------------------------
    Charge (ESU x 10^10)
                 0.0000
    Dipole Moment (Debye)
         X       1.7030      Y      -1.6791      Z      -0.2390
       Tot       2.4035
    Quadrupole Moments (Debye-Ang)
        XX    -382.1073     XY       6.2725     YY    -428.7737
        XZ       3.8065     YZ       2.7393     ZZ    -444.5843

 Total job time:  91.38s(wall), 998.04s(cpu)
        *  Thank you very much for using Q-Chem.  Have a nice day.  *
