 Q-Chem 4.4, Q-Chem, Inc., Pleasanton, CA (2016)
 Q-Chem 4.4.2 for Intel X86 Linux

User input:
--------------------------------------------------------------
$comment
SP
$end

$rem
MEM_STATIC 5000
MEM_TOTAL 20000
JOBTYPE SP
EXCHANGE B3LYP
BASIS 6-31g(d,p)
$end

$molecule
0 1
C          -9.384000    -14.784000     -6.480000
C          -8.765000    -14.155000     -5.389000
N         -10.680000    -15.144000     -6.307000
C          -9.412000    -13.866000     -4.186000
C         -11.386000    -14.804000     -5.199000
C         -10.773000    -14.186000     -4.054000
C         -11.498000    -13.966000     -2.777000
C         -10.867000    -14.191000     -1.546000
C         -12.914000    -13.660000     -2.630000
N         -11.463000    -14.056000     -0.346000
N         -13.727000    -13.460000     -3.679000
C         -13.477000    -13.464000     -1.402000
C         -12.717000    -13.628000     -0.228000
S         -15.100000    -13.048000     -2.994000
N         -14.748000    -12.943000     -1.411000
C         -13.248000    -13.394000      1.125000
S         -14.826000    -13.764000      1.699000
C         -12.404000    -13.005000      2.129000
C         -14.388000    -13.413000      3.375000
S         -10.782000    -12.473000      2.003000
C         -13.078000    -12.957000      3.351000
C         -15.101000    -13.810000      4.573000
C         -10.948000    -12.227000      3.820000
C         -12.173000    -12.557000      4.363000
N         -14.500000    -13.714000      5.722000
S         -16.634000    -14.579000      4.497000
C         -15.411000    -14.245000      6.706000
C         -16.592000    -14.650000      6.269000
C          -8.641000    -15.172000     -7.747000
H          -7.715000    -13.918000     -5.531000
H          -8.889000    -13.327000     -3.402000
H         -12.347000    -15.309000     -5.116000
H          -9.827000    -14.513000     -1.571000
H         -10.036000    -11.856000      4.268000
H         -12.381000    -12.414000      5.417000
H         -15.130000    -14.233000      7.751000
H         -17.438000    -15.032000      6.825000
H          -7.923000    -15.980000     -7.558000
C          -7.944000    -13.961000     -8.409000
H          -9.432000    -15.534000     -8.415000
H          -7.633000    -14.207000     -9.432000
H          -7.032000    -13.695000     -7.860000
C          -8.835000    -12.708000     -8.379000
H          -9.798000    -12.944000     -8.848000
C          -8.271000    -11.507000     -9.123000
H          -9.064000    -12.413000     -7.347000
H          -9.041000    -10.727000     -9.179000
H          -7.973000    -11.745000    -10.151000
C          -7.040000    -10.792000     -8.571000
H          -6.177000    -11.466000     -8.510000
C          -7.286000    -10.140000     -7.238000
H          -6.735000     -9.998000     -9.264000
H          -6.363000     -9.762000     -6.780000
H          -7.712000    -10.844000     -6.512000
H          -7.949000     -9.278000     -7.385000
C         -18.771000     -8.410000     15.645000
C         -19.152000     -9.430000     16.486000
N         -18.653000     -8.684000     14.322000
C         -19.561000    -10.652000     16.013000
C         -19.028000     -9.909000     13.886000
C         -19.589000    -10.937000     14.637000
C         -19.706000    -12.259000     13.967000
C         -19.329000    -12.460000     12.619000
C         -20.098000    -13.429000     14.613000
N         -19.383000    -13.599000     11.897000
N         -20.466000    -13.560000     15.939000
C         -20.098000    -14.655000     13.953000
C         -19.817000    -14.711000     12.539000
S         -20.967000    -15.096000     16.124000
N         -20.641000    -15.643000     14.645000
C         -20.025000    -15.925000     11.742000
S         -21.184000    -17.151000     12.102000
C         -19.362000    -16.222000     10.563000
C         -20.893000    -18.021000     10.672000
S         -17.959000    -15.587000      9.834000
C         -19.924000    -17.346000      9.921000
C         -21.543000    -19.261000     10.359000
C         -17.988000    -16.933000      8.702000
C         -19.093000    -17.772000      8.818000
N         -21.531000    -19.724000      9.146000
S         -22.476000    -20.166000     11.570000
C         -22.327000    -20.836000      9.063000
C         -22.942000    -21.172000     10.246000
C         -18.331000     -7.092000     16.101000
H         -19.106000     -9.275000     17.560000
H         -19.890000    -11.385000     16.743000
H         -18.931000    -10.036000     12.809000
H         -18.964000    -11.652000     11.987000
H         -17.172000    -16.945000      7.992000
H         -19.275000    -18.670000      8.238000
H         -22.310000    -21.326000      8.099000
H         -23.312000    -22.145000     10.543000
H         -17.489000     -7.207000     16.794000
C         -19.526000     -6.338000     16.787000
H         -18.034000     -6.593000     15.171000
H         -19.151000     -5.309000     16.841000
H         -19.633000     -6.712000     17.813000
C         -20.823000     -6.354000     15.959000
H         -20.522000     -6.168000     14.921000
C         -21.854000     -5.290000     16.407000
H         -21.262000     -7.355000     16.047000
H         -21.372000     -4.311000     16.297000
H         -22.049000     -5.357000     17.484000
C         -23.273000     -5.376000     15.720000
H         -23.151000     -5.450000     14.633000
C         -24.119000     -4.173000     16.245000
H         -23.739000     -6.319000     16.031000
H         -23.624000     -3.215000     16.045000
H         -24.251000     -4.188000     17.334000
H         -25.071000     -4.147000     15.700000
$end

--------------------------------------------------------------

             Standard Nuclear Orientation (Angstroms)
    I     Atom           X                Y                Z
 ----------------------------------------------------------------
    1      C     -14.2284728606    -0.6653250021    -0.2257929863
    2      C     -13.5460539385     0.2132404036    -1.0810767069
    3      N     -13.4674930457    -1.3365070001     0.6739677856
    4      C     -12.1697094183     0.4415294690    -1.0272356035
    5      C     -12.1438911503    -1.0846611868     0.8362998802
    6      C     -11.4117410550    -0.2127224218    -0.0425613307
    7      C      -9.9358100277    -0.0637213449     0.0220937669
    8      C      -9.1706947405     0.0135143976    -1.1495632808
    9      C      -9.1132276296    -0.1308299252     1.2217418973
   10      N      -7.8276789351     0.1073691741    -1.1802361924
   11      N      -9.6323700613    -0.2617241035     2.4524847013
   12      C      -7.7591445222     0.0331191496     1.1674405247
   13      C      -7.1036010051     0.1972318852    -0.0679143665
   14      S      -8.3551827764    -0.1608925267     3.3920184328
   15      N      -7.1343690930     0.1946792971     2.3800892710
   16      C      -5.6539550343     0.4188575784    -0.1972766932
   17      S      -4.4065087058    -0.2957689706     0.7459340748
   18      C      -5.1656116915     1.1181024214    -1.2669731123
   19      C      -3.1358383429     0.3279601488    -0.3125458798
   20      S      -6.0355014359     2.0454410071    -2.4128871493
   21      C      -3.7692593397     1.1101041931    -1.2673445678
   22      C      -1.7595002853    -0.1194875075    -0.3941923513
   23      C      -4.3548066594     2.4227178773    -3.0628780965
   24      C      -3.3028366237     1.8368882114    -2.3886847663
   25      N      -1.0389208363     0.2491931273    -1.4117668436
   26      S      -1.1187908943    -1.2710716109     0.7060674039
   27      C       0.2400025165    -0.4010775126    -1.2646575225
   28      C       0.4097114357    -1.1471632358    -0.1856255599
   29      C     -15.7110231860    -0.9696075961    -0.3574692395
   30      H     -14.1663813183     0.7044211265    -1.8245606942
   31      H     -11.7134799336     1.1770156322    -1.6826902251
   32      H     -11.6287720599    -1.8152155784     1.4578926760
   33      H      -9.7060910212    -0.0219751847    -2.0971920648
   34      H      -4.3867482757     3.0659935927    -3.9319379834
   35      H      -2.2741174554     2.0264037254    -2.6723214050
   36      H       1.0202094643    -0.2084067858    -1.9894230776
   37      H       1.2885406268    -1.6810187271     0.1511734415
   38      H     -15.9234462487    -1.5346138000    -1.2738498548
   39      C     -16.5778266594     0.3087479552    -0.2865268491
   40      H     -15.9296013960    -1.5946196577     0.5169062456
   41      H     -17.6330994827     0.0509554349    -0.1325519003
   42      H     -16.5255269599     0.8616592809    -1.2328115882
   43      C     -16.0725934620     1.2768859653     0.7961726519
   44      H     -16.0290963383     0.7473783246     1.7557327900
   45      C     -16.9475704469     2.5020158103     1.0141293882
   46      H     -15.0469570537     1.6043222598     0.5832279851
   47      H     -16.5947792039     3.0399601625     1.9032807885
   48      H     -18.0006436525     2.2479358923     1.1835761910
   49      C     -17.0282732619     3.5703195537    -0.0737603891
   50      H     -17.4172218973     3.1591783250    -1.0131473429
   51      C     -15.7166394779     4.2662519249    -0.3141849125
   52      H     -17.7501713410     4.3417478158     0.2219955910
   53      H     -15.7448408222     4.9201766850    -1.1951866675
   54      H     -14.9040038182     3.5523948425    -0.4991155763
   55      H     -15.4917609279     4.9019037565     0.5516085887
   56      C       9.9174874800     5.2146861061    -1.0365571920
   57      C      10.7965325220     4.2215236426    -1.4022758477
   58      N       8.6913255747     4.8482505339    -0.5875795161
   59      C      10.5304547109     2.8931597962    -1.1810382154
   60      C       8.4411577568     3.5298026335    -0.4130596119
   61      C       9.3277297069     2.4720520058    -0.5881589751
   62      C       8.7445995078     1.1051380605    -0.5459874567
   63      C       7.3747835835     0.8748243764    -0.2810460663
   64      C       9.4522072694    -0.0546597288    -0.8526474374
   65      N       6.7231042210    -0.3052329306    -0.2154735037
   66      N      10.7851668388    -0.1425202497    -1.2081193988
   67      C       8.8253448920    -1.2974837114    -0.8859356945
   68      C       7.4497445898    -1.4209672515    -0.4688402332
   69      S      11.1269774206    -1.7291851761    -1.3090249858
   70      N       9.6531893307    -2.3181311174    -1.0369636980
   71      C       6.8035338411    -2.7214255232    -0.2603001849
   72      S       7.6277100563    -4.1674981189     0.1930921555
   73      C       5.4401818636    -2.9506925694    -0.3410900803
   74      C       6.2007735606    -5.0704112338     0.3803917658
   75      S       4.1518458951    -2.0442144822    -0.9903688415
   76      C       5.1036951884    -4.2429162412     0.1153293533
   77      C       6.1900870606    -6.4636130439     0.7223618158
   78      C       3.1208693437    -3.4579532831    -0.8103384186
   79      C       3.7208625801    -4.5435592276    -0.1779857880
   80      N       5.1037189976    -7.0281415051     1.1547899002
   81      S       7.6634230380    -7.4551352971     0.6754606530
   82      C       5.3698150726    -8.3138628366     1.5461497559
   83      C       6.6882794767    -8.6783677760     1.4068738998
   84      C      10.1575915093     6.6415787084    -1.2486598952
   85      H      11.7209699904     4.4919419807    -1.9041785170
   86      H      11.2987396589     2.1776289492    -1.4570524281
   87      H       7.4463731786     3.3238450918    -0.0213299424
   88      H       6.6779726946     1.6818119753    -0.0602778616
   89      H       2.1059028797    -3.3255300540    -1.1602057727
   90      H       3.2647617532    -5.5120013936    -0.0047235391
   91      H       4.4979850971    -8.8775404135     1.8492422884
   92      H       7.0875821428    -9.6790692550     1.3020314906
   93      H      10.3544564453     6.8253275008    -2.3116361782
   94      C      11.3636272141     7.1176182158    -0.3620927709
   95      H       9.2202453537     7.1038574358    -0.9173133049
   96      H      11.2714886369     8.2091592492    -0.4113944432
   97      H      12.2985593542     6.8353693013    -0.8623311579
   98      C      11.2623566007     6.6738333977     1.1078896434
   99      H      10.2160186568     6.8260520005     1.3988319127
  100      C      12.1934345300     7.4662957422     2.0570252091
  101      H      11.5107571484     5.6066586222     1.1514920100
  102      H      11.9041923937     8.5215349106     1.9816973650
  103      H      13.2276465365     7.4602617215     1.6925912423
  104      C      12.2715565682     6.9374339215     3.5426658527
  105      H      11.2580982145     6.7879008145     3.9331412234
  106      C      13.1865502880     7.9200840395     4.3399959213
  107      H      12.7305292312     5.9414671895     3.5198543745
  108      H      12.8114076441     8.9494510665     4.2903922892
  109      H      14.2030188943     7.9818378444     3.9318929441
  110      H      13.1686716063     7.6369379716     5.3999551926
 ----------------------------------------------------------------

    9   -5663.5378812660      6.37E-06 Convergence criterion met
 Total energy in the final basis set = -5663.5378812660

                    Orbital Energies (a.u.)
 --------------------------------------------------------------

 Alpha MOs
 -- Occupied --
-88.994 -88.988 -88.928 -88.928 -88.923 -88.917 -88.915 -88.905
-14.390 -14.385 -14.385 -14.381 -14.354 -14.346 -14.345 -14.338
-14.328 -14.325 -10.271 -10.265 -10.265 -10.259 -10.256 -10.256
-10.255 -10.250 -10.241 -10.240 -10.240 -10.237 -10.234 -10.234
-10.231 -10.231 -10.230 -10.230 -10.230 -10.229 -10.228 -10.227
-10.224 -10.223 -10.222 -10.220 -10.220 -10.220 -10.219 -10.213
-10.213 -10.213 -10.206 -10.203 -10.203 -10.199 -10.193 -10.191
-10.189 -10.187 -10.185 -10.183 -10.182 -10.177 -10.177 -10.176
-10.175 -10.174 -10.173 -10.169  -8.049  -8.044  -7.990  -7.989
 -7.983  -7.979  -7.976  -7.965  -6.014  -6.009  -6.009  -6.007
 -6.004  -6.002  -5.953  -5.953  -5.950  -5.949  -5.947  -5.947
 -5.946  -5.943  -5.943  -5.941  -5.940  -5.939  -5.937  -5.936
 -5.933  -5.929  -5.926  -5.921  -1.054  -1.045  -0.980  -0.965
 -0.962  -0.960  -0.937  -0.932  -0.923  -0.916  -0.911  -0.904
 -0.858  -0.841  -0.840  -0.833  -0.814  -0.813  -0.813  -0.808
 -0.806  -0.803  -0.799  -0.795  -0.787  -0.783  -0.770  -0.768
 -0.752  -0.751  -0.743  -0.742  -0.731  -0.718  -0.715  -0.712
 -0.697  -0.697  -0.677  -0.673  -0.656  -0.654  -0.651  -0.645
 -0.640  -0.634  -0.626  -0.622  -0.618  -0.614  -0.601  -0.600
 -0.596  -0.589  -0.585  -0.584  -0.580  -0.577  -0.570  -0.556
 -0.550  -0.550  -0.542  -0.541  -0.529  -0.524  -0.518  -0.509
 -0.508  -0.504  -0.504  -0.501  -0.489  -0.489  -0.479  -0.479
 -0.477  -0.471  -0.468  -0.467  -0.464  -0.461  -0.457  -0.451
 -0.443  -0.442  -0.441  -0.439  -0.436  -0.434  -0.433  -0.430
 -0.429  -0.428  -0.426  -0.424  -0.418  -0.417  -0.413  -0.413
 -0.411  -0.410  -0.409  -0.405  -0.402  -0.399  -0.398  -0.396
 -0.395  -0.394  -0.390  -0.388  -0.387  -0.386  -0.386  -0.385
 -0.379  -0.378  -0.375  -0.372  -0.370  -0.369  -0.360  -0.358
 -0.355  -0.355  -0.353  -0.350  -0.350  -0.346  -0.346  -0.343
 -0.342  -0.340  -0.338  -0.337  -0.333  -0.331  -0.324  -0.320
 -0.318  -0.316  -0.316  -0.311  -0.308  -0.305  -0.304  -0.303
 -0.301  -0.297  -0.294  -0.291  -0.289  -0.284  -0.284  -0.281
 -0.278  -0.272  -0.272  -0.269  -0.257  -0.254  -0.249  -0.248
 -0.245  -0.238  -0.232  -0.231  -0.196  -0.194

          Ground-State Mulliken Net Atomic Charges

     Atom                 Charge (a.u.)
  ----------------------------------------
      1 C                     0.278150
      2 C                    -0.119311
      3 N                    -0.487980
      4 C                    -0.077892
      5 C                     0.090234
      6 C                     0.022382
      7 C                     0.053156
      8 C                     0.049798
      9 C                     0.200804
     10 N                    -0.514763
     11 N                    -0.517809
     12 C                     0.170036
     13 C                     0.270149
     14 S                     0.606572
     15 N                    -0.530169
     16 C                    -0.197888
     17 S                     0.315321
     18 C                    -0.079032
     19 C                    -0.241059
     20 S                     0.256088
     21 C                     0.139391
     22 C                     0.105887
     23 C                    -0.301805
     24 C                    -0.043870
     25 N                    -0.462540
     26 S                     0.247978
     27 C                     0.111486
     28 C                    -0.302428
     29 C                    -0.230902
     30 H                     0.083152
     31 H                     0.106129
     32 H                     0.115138
     33 H                     0.109968
     34 H                     0.121279
     35 H                     0.131424
     36 H                     0.115441
     37 H                     0.140199
     38 H                     0.115492
     39 C                    -0.186826
     40 H                     0.125438
     41 H                     0.099969
     42 H                     0.095412
     43 C                    -0.175722
     44 H                     0.100688
     45 C                    -0.175142
     46 H                     0.105271
     47 H                     0.086453
     48 H                     0.085054
     49 C                    -0.176718
     50 H                     0.086916
     51 C                    -0.313398
     52 H                     0.091420
     53 H                     0.095779
     54 H                     0.100056
     55 H                     0.102309
     56 C                     0.293732
     57 C                    -0.104436
     58 N                    -0.505636
     59 C                    -0.083987
     60 C                     0.060924
     61 C                     0.061512
     62 C                     0.086677
     63 C                     0.044242
     64 C                     0.203884
     65 N                    -0.522120
     66 N                    -0.566842
     67 C                     0.208474
     68 C                     0.269510
     69 S                     0.611776
     70 N                    -0.544679
     71 C                    -0.225477
     72 S                     0.342183
     73 C                    -0.088663
     74 C                    -0.204680
     75 S                     0.279899
     76 C                     0.103960
     77 C                     0.070937
     78 C                    -0.327309
     79 C                    -0.048636
     80 N                    -0.427465
     81 S                     0.263744
     82 C                     0.120403
     83 C                    -0.311018
     84 C                    -0.252233
     85 H                     0.082204
     86 H                     0.122873
     87 H                     0.093715
     88 H                     0.113864
     89 H                     0.135391
     90 H                     0.127509
     91 H                     0.116554
     92 H                     0.134902
     93 H                     0.111534
     94 C                    -0.188405
     95 H                     0.122536
     96 H                     0.097278
     97 H                     0.093623
     98 C                    -0.179235
     99 H                     0.105775
    100 C                    -0.174401
    101 H                     0.098714
    102 H                     0.089112
    103 H                     0.087403
    104 C                    -0.180513
    105 H                     0.097802
    106 C                    -0.319305
    107 H                     0.097239
    108 H                     0.104756
    109 H                     0.105671
    110 H                     0.099562
  ----------------------------------------
  Sum of atomic charges =     0.000000

                    Cartesian Multipole Moments
 -----------------------------------------------------------------
    Charge (ESU x 10^10)
                 0.0000
    Dipole Moment (Debye)
         X       2.8390      Y      -1.7051      Z      -1.5771
       Tot       3.6681
    Quadrupole Moments (Debye-Ang)
        XX    -367.9621     XY     -26.1593     YY    -415.5002
        XZ       5.0281     YZ      -8.8857     ZZ    -443.7149

 Total job time:  86.03s(wall), 931.94s(cpu)
        *  Thank you very much for using Q-Chem.  Have a nice day.  *
