 Q-Chem 4.4, Q-Chem, Inc., Pleasanton, CA (2016)
 Q-Chem 4.4.2 for Intel X86 Linux

User input:
--------------------------------------------------------------
$comment
SP
$end

$rem
MEM_STATIC 5000
MEM_TOTAL 20000
JOBTYPE SP
EXCHANGE B3LYP
BASIS 6-31g(d,p)
$end

$molecule
0 1
C         -16.193000     -9.771000     10.945000
C         -16.542000     -8.530000     11.427000
N         -16.106000    -10.053000      9.640000
C         -16.984000     -7.544000     10.573000
C         -16.529000     -9.116000      8.751000
C         -17.065000     -7.848000      9.177000
C         -17.686000     -6.832000      8.309000
C         -18.941000     -6.267000      8.656000
C         -17.020000     -6.270000      7.171000
N         -19.508000     -5.260000      7.972000
N         -15.758000     -6.723000      6.756000
C         -17.613000     -5.200000      6.467000
C         -18.856000     -4.679000      6.897000
S         -15.453000     -5.770000      5.421000
N         -16.819000     -4.840000      5.444000
C         -19.403000     -3.453000      6.292000
S         -18.440000     -2.065000      5.833000
C         -20.756000     -3.138000      6.223000
C         -19.911000     -1.077000      5.516000
S         -22.110000     -4.210000      6.305000
C         -21.059000     -1.869000      5.817000
C         -19.922000      0.223000      4.889000
C         -23.149000     -2.905000      5.733000
C         -22.434000     -1.656000      5.553000
N         -20.997000      1.000000      4.742000
S         -18.448000      0.822000      4.155000
C         -20.628000      2.138000      3.971000
C         -19.322000      2.280000      3.711000
C         -15.820000    -10.804000     11.896000
H         -16.746000     -8.347000     12.478000
H         -17.319000     -6.577000     10.935000
H         -16.503000     -9.368000      7.692000
H         -19.414000     -6.537000      9.599000
H         -24.203000     -3.113000      5.612000
H         -22.825000     -0.721000      5.169000
H         -21.322000      2.936000      3.742000
H         -18.864000      3.138000      3.237000
H         -16.351000    -10.682000     12.848000
C         -14.241000    -10.805000     12.152000
H         -16.153000    -11.741000     11.435000
H         -14.141000    -11.620000     12.879000
H         -14.047000     -9.801000     12.550000
C         -13.331000    -11.012000     10.927000
H         -13.774000    -11.828000     10.342000
C         -11.852000    -11.438000     11.367000
H         -13.298000    -10.143000     10.259000
H         -11.842000    -12.492000     11.671000
H         -11.467000    -10.766000     12.145000
C         -10.941000    -11.470000     10.167000
H         -11.242000    -12.346000      9.581000
C          -9.390000    -11.565000     10.333000
H         -11.011000    -10.509000      9.643000
H          -8.992000    -11.463000      9.316000
H          -8.953000    -12.399000     10.897000
H          -9.060000    -10.663000     10.863000
C         -18.771000     -8.410000     15.645000
C         -19.152000     -9.430000     16.486000
N         -18.653000     -8.684000     14.322000
C         -19.561000    -10.652000     16.013000
C         -19.028000     -9.909000     13.886000
C         -19.589000    -10.937000     14.637000
C         -19.706000    -12.259000     13.967000
C         -19.329000    -12.460000     12.619000
C         -20.098000    -13.429000     14.613000
N         -19.383000    -13.599000     11.897000
N         -20.466000    -13.560000     15.939000
C         -20.098000    -14.655000     13.953000
C         -19.817000    -14.711000     12.539000
S         -20.967000    -15.096000     16.124000
N         -20.641000    -15.643000     14.645000
C         -20.025000    -15.925000     11.742000
S         -21.184000    -17.151000     12.102000
C         -19.362000    -16.222000     10.563000
C         -20.893000    -18.021000     10.672000
S         -17.959000    -15.587000      9.834000
C         -19.924000    -17.346000      9.921000
C         -21.543000    -19.261000     10.359000
C         -17.988000    -16.933000      8.702000
C         -19.093000    -17.772000      8.818000
N         -21.531000    -19.724000      9.146000
S         -22.476000    -20.166000     11.570000
C         -22.327000    -20.836000      9.063000
C         -22.942000    -21.172000     10.246000
C         -18.331000     -7.092000     16.101000
H         -19.106000     -9.275000     17.560000
H         -19.890000    -11.385000     16.743000
H         -18.931000    -10.036000     12.809000
H         -18.964000    -11.652000     11.987000
H         -17.172000    -16.945000      7.992000
H         -19.275000    -18.670000      8.238000
H         -22.310000    -21.326000      8.099000
H         -23.312000    -22.145000     10.543000
H         -17.489000     -7.207000     16.794000
C         -19.526000     -6.338000     16.787000
H         -18.034000     -6.593000     15.171000
H         -19.151000     -5.309000     16.841000
H         -19.633000     -6.712000     17.813000
C         -20.823000     -6.354000     15.959000
H         -20.522000     -6.168000     14.921000
C         -21.854000     -5.290000     16.407000
H         -21.262000     -7.355000     16.047000
H         -21.372000     -4.311000     16.297000
H         -22.049000     -5.357000     17.484000
C         -23.273000     -5.376000     15.720000
H         -23.151000     -5.450000     14.633000
C         -24.119000     -4.173000     16.245000
H         -23.739000     -6.319000     16.031000
H         -23.624000     -3.215000     16.045000
H         -24.251000     -4.188000     17.334000
H         -25.071000     -4.147000     15.700000
$end

--------------------------------------------------------------

             Standard Nuclear Orientation (Angstroms)
    I     Atom           X                Y                Z
 ----------------------------------------------------------------
    1      C      -0.4295762211     0.7427900606    -2.7586886057
    2      C       0.5149952243    -0.2578428868    -2.7856049397
    3      N      -0.1856126455     1.9689630126    -2.2821388542
    4      C       1.7323109772    -0.0911119282    -2.1633355888
    5      C       1.0007609510     2.1906695041    -1.6571725181
    6      C       1.9833848681     1.1491410617    -1.4951085149
    7      C       3.2257768415     1.2422222477    -0.7082673129
    8      C       3.5581399605     0.2252862377     0.2244893053
    9      C       4.2101150977     2.2607660198    -0.9275634179
   10      N       4.7240994609     0.1908481734     0.8898812673
   11      N       4.0074543020     3.2962387588    -1.8531998523
   12      C       5.4407039641     2.2091250927    -0.2382527068
   13      C       5.7011929879     1.1441563304     0.6558261509
   14      S       5.4119545436     4.1858097164    -1.7135517846
   15      N       6.2003032049     3.2589937265    -0.5951138073
   16      C       7.0397952617     0.9720599465     1.2447546587
   17      S       8.5390862491     1.2460708936     0.3835702790
   18      C       7.2966280994     0.3523985716     2.4632174911
   19      C       9.5066016196     0.5375773565     1.7261144742
   20      S       6.2159731943     0.1143190235     3.7916478073
   21      C       8.6094760301     0.1001490246     2.7457178927
   22      C      10.9457601593     0.5792778408     1.8277696125
   23      C       7.5929091336    -0.3184748736     4.8047948162
   24      C       8.8459804545    -0.3289100418     4.0745007850
   25      N      11.6710780364    -0.0291180683     2.7683712258
   26      S      11.8453272695     1.5833308720     0.7084441350
   27      C      13.0328973630     0.3495999566     2.6020378879
   28      C      13.3216885988     1.0564410766     1.5018673315
   29      C      -1.7305052991     0.4838314052    -3.3512617646
   30      H       0.2718593321    -1.2848232763    -3.0423192118
   31      H       2.4707298409    -0.8856892119    -2.1215920621
   32      H       1.1753863193     3.1756602876    -1.2271025969
   33      H       2.9265220364    -0.6576150700     0.3106407928
   34      H       7.4004950836    -0.5792164972     5.8362072648
   35      H       9.8383508830    -0.5137516199     4.4689580369
   36      H      13.8259784511    -0.0399896075     3.2266364464
   37      H      14.3153089276     1.3272730734     1.1702460540
   38      H      -2.0065196476    -0.5741514809    -3.2638701630
   39      C      -1.7592858108     0.9266518200    -4.8880960961
   40      H      -2.4330281743     1.0724985695    -2.7501697753
   41      H      -2.7853855155     0.6610782474    -5.1697768968
   42      H      -0.9769893414     0.3082068564    -5.3459105355
   43      C      -1.4401700235     2.4004811059    -5.2004522233
   44      H      -1.9884283744     3.0024452325    -4.4646655892
   45      C      -1.9360127294     2.8041250597    -6.6680109341
   46      H      -0.3809505245     2.6523768030    -5.0697747171
   47      H      -3.0244554314     2.9409507736    -6.6698021765
   48      H      -1.5971641255     2.0700609199    -7.4105905341
   49      C      -1.4649915659     4.1934856484    -7.0126284294
   50      H      -2.0618990273     4.8772103905    -6.3981408710
   51      C      -1.5472370033     4.7340435787    -8.4766007010
   52      H      -0.3806823783     4.2490088620    -6.8571042884
   53      H      -1.0455768952     5.7089313446    -8.4445385787
   54      H      -2.5133834462     4.7511066297    -8.9970725094
   55      H      -0.9035863324     4.0994797614    -9.0982489742
   56      C      -1.0903950892    -4.7401079846    -2.4594354531
   57      C      -2.3707221891    -5.2253025870    -2.3245624940
   58      N      -0.8307715639    -3.4890009049    -2.0048414583
   59      C      -3.3349508707    -4.5538670585    -1.6148221324
   60      C      -1.8104379149    -2.8331630866    -1.3404044057
   61      C      -3.0716565696    -3.3152183549    -1.0050594737
   62      C      -4.0396270712    -2.3218638791    -0.4697530256
   63      C      -3.6915479603    -0.9691149888    -0.2494228815
   64      C      -5.3840748438    -2.5943168384    -0.2286937554
   65      N      -4.4679569093     0.0267127729     0.2270613395
   66      N      -6.0296027330    -3.8034687889    -0.4078760782
   67      C      -6.2621078181    -1.5958517091     0.1845876035
   68      C      -5.7592334004    -0.2810813023     0.5007981305
   69      S      -7.5398348547    -3.6032732356     0.1610199395
   70      N      -7.4630073024    -2.0359402941     0.5222552891
   71      C      -6.5829367660     0.7407170072     1.1563208078
   72      S      -7.9035499600     0.4084635758     2.2153512366
   73      C      -6.3754755958     2.1066216616     1.0610142610
   74      C      -8.1450431224     2.0386991772     2.6282603505
   75      S      -5.4477736929     3.0638502809    -0.0001914446
   76      C      -7.1913219750     2.8193952660     1.9652998765
   77      C      -9.1979364114     2.4834037845     3.4952796895
   78      C      -6.2568695499     4.4872881225     0.6425912600
   79      C      -7.1245243907     4.2389898544     1.7027445731
   80      N      -9.1595566333     3.6680762049     4.0253365253
   81      S     -10.5385714629     1.4187627982     3.9699082065
   82      C     -10.1890291068     3.8137530514     4.9175325142
   83      C     -10.9798538781     2.6961760827     5.0449212904
   84      C      -0.0297064445    -5.4196571059    -3.2022763451
   85      H      -2.6373792878    -6.1573790793    -2.8141995067
   86      H      -4.3056454862    -5.0300924783    -1.5179133461
   87      H      -1.5104354136    -1.8494600443    -0.9829217854
   88      H      -2.6876272439    -0.5870121859    -0.4273375888
   89      H      -5.9594579994     5.4218044239     0.1861642099
   90      H      -7.7387314730     4.9751842154     2.2093958565
   91      H     -10.2707848064     4.8030167413     5.3469022353
   92      H     -12.0077999270     2.6513905210     5.3813126903
   93      H      -0.3639728981    -5.6050672903    -4.2300540455
   94      C       0.3497374190    -6.7631896534    -2.4824988461
   95      H       0.8003563379    -4.7044953019    -3.1616638901
   96      H       1.2950188575    -7.0291436868    -2.9704470546
   97      H      -0.3933517900    -7.5251664961    -2.7493522117
   98      C       0.5946509247    -6.6063252357    -0.9713866963
   99      H       1.1775371089    -5.6849767225    -0.8530582829
  100      C       1.3586133769    -7.7970357780    -0.3434290734
  101      H      -0.3820808649    -6.4954549540    -0.4854146891
  102      H       2.3253963718    -7.8636755493    -0.8569996934
  103      H       0.8752769232    -8.7504124199    -0.5881776204
  104      C       1.4794697953    -7.7826301235     1.2307730112
  105      H       1.8333127712    -6.7996203453     1.5630619283
  106      C       2.3503821172    -9.0115336309     1.6429112124
  107      H       0.4695606821    -7.8899197180     1.6451382198
  108      H       3.3328702031    -8.9901350660     1.1560351887
  109      H       1.9132215370    -9.9677803626     1.3297773506
  110      H       2.5409140134    -8.9624735714     2.7223998446
 ----------------------------------------------------------------

   10   -5663.5336046529      4.36E-06 Convergence criterion met
 Total energy in the final basis set = -5663.5336046529

                    Orbital Energies (a.u.)
 --------------------------------------------------------------

 Alpha MOs
 -- Occupied --
-88.992 -88.988 -88.929 -88.926 -88.925 -88.916 -88.909 -88.909
-14.385 -14.384 -14.383 -14.380 -14.352 -14.352 -14.342 -14.341
-14.332 -14.323 -10.269 -10.268 -10.266 -10.264 -10.256 -10.255
-10.255 -10.254 -10.243 -10.242 -10.240 -10.238 -10.237 -10.237
-10.233 -10.232 -10.228 -10.228 -10.227 -10.226 -10.224 -10.224
-10.224 -10.224 -10.223 -10.223 -10.222 -10.216 -10.213 -10.209
-10.209 -10.208 -10.206 -10.203 -10.202 -10.200 -10.192 -10.188
-10.186 -10.183 -10.181 -10.180 -10.179 -10.178 -10.175 -10.174
-10.172 -10.172 -10.170 -10.168  -8.048  -8.043  -7.988  -7.987
 -7.986  -7.978  -7.971  -7.970  -6.013  -6.008  -6.007  -6.006
 -6.003  -6.001  -5.952  -5.951  -5.950  -5.949  -5.948  -5.946
 -5.945  -5.944  -5.943  -5.942  -5.938  -5.935  -5.935  -5.934
 -5.931  -5.931  -5.927  -5.926  -1.044  -1.020  -0.978  -0.958
 -0.954  -0.947  -0.942  -0.933  -0.919  -0.911  -0.903  -0.890
 -0.854  -0.842  -0.840  -0.826  -0.814  -0.812  -0.807  -0.804
 -0.800  -0.797  -0.797  -0.790  -0.785  -0.780  -0.770  -0.762
 -0.750  -0.747  -0.742  -0.734  -0.727  -0.722  -0.715  -0.705
 -0.697  -0.687  -0.676  -0.672  -0.655  -0.652  -0.651  -0.640
 -0.633  -0.631  -0.624  -0.621  -0.614  -0.606  -0.600  -0.593
 -0.590  -0.584  -0.582  -0.581  -0.578  -0.572  -0.566  -0.558
 -0.553  -0.546  -0.541  -0.535  -0.528  -0.519  -0.515  -0.509
 -0.505  -0.504  -0.498  -0.497  -0.490  -0.486  -0.479  -0.476
 -0.474  -0.471  -0.468  -0.464  -0.463  -0.460  -0.450  -0.446
 -0.445  -0.440  -0.438  -0.436  -0.433  -0.431  -0.428  -0.427
 -0.426  -0.424  -0.420  -0.418  -0.416  -0.415  -0.412  -0.410
 -0.410  -0.409  -0.407  -0.401  -0.400  -0.398  -0.398  -0.395
 -0.393  -0.392  -0.388  -0.388  -0.387  -0.386  -0.384  -0.383
 -0.377  -0.376  -0.371  -0.368  -0.367  -0.359  -0.358  -0.354
 -0.353  -0.353  -0.351  -0.348  -0.347  -0.345  -0.343  -0.341
 -0.337  -0.337  -0.333  -0.331  -0.327  -0.322  -0.320  -0.320
 -0.312  -0.309  -0.308  -0.308  -0.305  -0.303  -0.301  -0.299
 -0.297  -0.296  -0.292  -0.289  -0.286  -0.281  -0.281  -0.278
 -0.276  -0.274  -0.272  -0.261  -0.256  -0.255  -0.253  -0.246
 -0.245  -0.241  -0.232  -0.228  -0.193  -0.190

          Ground-State Mulliken Net Atomic Charges

     Atom                 Charge (a.u.)
  ----------------------------------------
      1 C                     0.281306
      2 C                    -0.122561
      3 N                    -0.485451
      4 C                    -0.075944
      5 C                     0.093315
      6 C                     0.010206
      7 C                     0.000118
      8 C                     0.065705
      9 C                     0.199073
     10 N                    -0.500279
     11 N                    -0.548166
     12 C                     0.256437
     13 C                     0.259951
     14 S                     0.609464
     15 N                    -0.575053
     16 C                    -0.201697
     17 S                     0.334419
     18 C                    -0.106583
     19 C                    -0.241205
     20 S                     0.283074
     21 C                     0.161748
     22 C                     0.080415
     23 C                    -0.314074
     24 C                    -0.068582
     25 N                    -0.459295
     26 S                     0.245374
     27 C                     0.111228
     28 C                    -0.289132
     29 C                    -0.249897
     30 H                     0.117996
     31 H                     0.103656
     32 H                     0.111293
     33 H                     0.120878
     34 H                     0.135200
     35 H                     0.134078
     36 H                     0.112275
     37 H                     0.131335
     38 H                     0.099498
     39 C                    -0.179516
     40 H                     0.115014
     41 H                     0.097818
     42 H                     0.097440
     43 C                    -0.169249
     44 H                     0.105485
     45 C                    -0.174340
     46 H                     0.104240
     47 H                     0.091101
     48 H                     0.086486
     49 C                    -0.168643
     50 H                     0.093712
     51 C                    -0.327563
     52 H                     0.091086
     53 H                     0.103469
     54 H                     0.098082
     55 H                     0.096809
     56 C                     0.296966
     57 C                    -0.106918
     58 N                    -0.517807
     59 C                    -0.082452
     60 C                     0.061979
     61 C                     0.062064
     62 C                     0.083174
     63 C                     0.041683
     64 C                     0.204293
     65 N                    -0.520962
     66 N                    -0.569851
     67 C                     0.208008
     68 C                     0.269617
     69 S                     0.610382
     70 N                    -0.542792
     71 C                    -0.226310
     72 S                     0.338258
     73 C                    -0.089788
     74 C                    -0.204592
     75 S                     0.290071
     76 C                     0.106306
     77 C                     0.071156
     78 C                    -0.310731
     79 C                    -0.049761
     80 N                    -0.426436
     81 S                     0.262421
     82 C                     0.120250
     83 C                    -0.311650
     84 C                    -0.251498
     85 H                     0.084785
     86 H                     0.125155
     87 H                     0.099116
     88 H                     0.119384
     89 H                     0.131081
     90 H                     0.124487
     91 H                     0.115769
     92 H                     0.134020
     93 H                     0.112796
     94 C                    -0.188489
     95 H                     0.117663
     96 H                     0.098236
     97 H                     0.094940
     98 C                    -0.178805
     99 H                     0.103729
    100 C                    -0.174535
    101 H                     0.099118
    102 H                     0.089665
    103 H                     0.087812
    104 C                    -0.180277
    105 H                     0.098583
    106 C                    -0.319173
    107 H                     0.097171
    108 H                     0.105347
    109 H                     0.105407
    110 H                     0.100380
  ----------------------------------------
  Sum of atomic charges =     0.000000

                    Cartesian Multipole Moments
 -----------------------------------------------------------------
    Charge (ESU x 10^10)
                 0.0000
    Dipole Moment (Debye)
         X      -2.4927      Y      -1.8749      Z      -0.1692
       Tot       3.1237
    Quadrupole Moments (Debye-Ang)
        XX    -374.9069     XY      10.3324     YY    -421.2664
        XZ     -15.0992     YZ       9.7138     ZZ    -437.0812

 Total job time:  93.85s(wall), 1024.76s(cpu)
        *  Thank you very much for using Q-Chem.  Have a nice day.  *
