 Q-Chem 4.4, Q-Chem, Inc., Pleasanton, CA (2016)
 Q-Chem 4.4.2 for Intel X86 Linux

User input:
--------------------------------------------------------------
$comment
SP
$end

$rem
MEM_STATIC 5000
MEM_TOTAL 20000
JOBTYPE SP
EXCHANGE B3LYP
BASIS 6-31g(d,p)
$end

$molecule
0 1
C          -5.460000     21.771000      7.572000
C          -4.391000     21.400000      6.841000
N          -6.082000     22.965000      7.462000
C          -3.796000     22.319000      6.013000
C          -5.575000     23.863000      6.667000
C          -4.375000     23.661000      5.967000
C          -3.923000     24.695000      4.932000
C          -3.587000     24.290000      3.607000
C          -3.757000     26.092000      5.130000
N          -3.034000     25.123000      2.669000
N          -4.024000     26.722000      6.257000
C          -3.247000     26.938000      4.145000
C          -2.820000     26.426000      2.926000
S          -3.677000     28.309000      6.079000
N          -3.172000     28.262000      4.546000
C          -2.036000     27.187000      2.006000
S          -1.574000     28.949000      2.044000
C          -1.407000     26.593000      0.922000
C          -0.941000     28.809000      0.383000
S          -1.201000     24.955000      0.387000
C          -0.914000     27.510000     -0.032000
C          -0.332000     29.819000     -0.371000
C          -0.326000     25.584000     -1.026000
C          -0.279000     26.968000     -1.132000
N           0.541000     30.598000      0.279000
S          -0.746000     30.245000     -1.959000
C           1.047000     31.536000     -0.609000
C           0.379000     31.550000     -1.765000
C          -6.060000     20.837000      8.534000
H          -3.906000     20.440000      6.993000
H          -2.899000     22.126000      5.432000
H          -6.087000     24.823000      6.696000
H          -3.648000     23.218000      3.424000
H          -0.134000     24.887000     -1.831000
H           0.239000     27.425000     -1.967000
H           1.867000     32.167000     -0.294000
H           0.556000     32.243000     -2.577000
H          -7.129000     21.029000      8.683000
C          -5.371000     21.058000      9.884000
H          -6.009000     19.808000      8.154000
H          -5.536000     22.100000     10.184000
H          -4.304000     20.964000      9.647000
C          -5.995000     20.196000     11.081000
H          -7.082000     20.257000     10.942000
C          -5.550000     20.813000     12.412000
H          -5.675000     19.148000     11.034000
H          -6.271000     20.368000     13.108000
H          -5.819000     21.874000     12.336000
C          -4.140000     20.487000     12.840000
H          -3.824000     19.437000     12.810000
C          -3.831000     21.061000     14.243000
H          -3.438000     20.932000     12.123000
H          -2.819000     20.806000     14.582000
H          -4.405000     20.658000     15.087000
H          -3.810000     22.157000     14.240000
C          -9.958000     13.496000      2.552000
C          -8.916000     13.165000      1.634000
N          -9.902000     14.549000      3.391000
C          -7.762000     14.032000      1.534000
C          -8.761000     15.339000      3.293000
C          -7.650000     15.085000      2.471000
C          -6.359000     15.857000      2.490000
C          -5.576000     15.996000      1.346000
C          -5.939000     16.549000      3.654000
N          -4.497000     16.804000      1.298000
N          -6.488000     16.413000      4.870000
C          -4.909000     17.486000      3.618000
C          -4.158000     17.574000      2.358000
S          -5.822000     17.550000      5.766000
N          -4.735000     18.203000      4.722000
C          -3.102000     18.549000      2.291000
S          -2.920000     20.105000      3.127000
C          -1.948000     18.355000      1.610000
C          -1.255000     20.370000      2.654000
S          -1.491000     16.948000      0.656000
C          -0.897000     19.269000      1.909000
C          -0.498000     21.533000      2.846000
C           0.120000     17.683000      0.581000
C           0.285000     18.910000      1.240000
N          -1.116000     22.600000      3.330000
S           1.258000     21.807000      2.703000
C          -0.278000     23.621000      3.674000
C           1.039000     23.392000      3.265000
C         -11.145000     12.686000      2.662000
H          -9.023000     12.254000      1.053000
H          -6.866000     13.692000      1.022000
H          -8.681000     16.166000      3.997000
H          -5.754000     15.616000      0.341000
H           0.914000     17.136000      0.088000
H           1.255000     19.349000      1.445000
H          -0.696000     24.550000      4.038000
H           1.812000     24.133000      3.112000
H         -12.029000     13.257000      2.353000
C         -11.285000     12.042000      4.118000
H         -11.145000     11.880000      1.918000
H         -11.234000     12.840000      4.868000
H         -10.425000     11.395000      4.332000
C         -12.458000     11.110000      4.318000
H         -12.533000     10.422000      3.467000
C         -13.762000     11.893000      4.343000
H         -12.265000     10.590000      5.265000
H         -14.033000     12.200000      3.326000
H         -13.627000     12.834000      4.889000
C         -14.991000     11.151000      5.037000
H         -15.280000     10.243000      4.493000
C         -16.203000     12.045000      5.198000
H         -14.529000     10.883000      5.996000
H         -16.458000     12.419000      4.199000
H         -15.961000     12.964000      5.747000
H         -17.093000     11.479000      5.500000
$end

--------------------------------------------------------------

             Standard Nuclear Orientation (Angstroms)
    I     Atom           X                Y                Z
 ----------------------------------------------------------------
    1      C      -1.0978799017     4.0236641366    -0.0601999705
    2      C      -0.6932844461     3.0424031314     0.7693736289
    3      N      -0.4250318704     4.4148334152    -1.1642299168
    4      C       0.5397249393     2.4706667709     0.5770837705
    5      C       0.7374101498     3.8818185901    -1.4093864912
    6      C       1.3451971815     2.9622837613    -0.5399874903
    7      C       2.6362611476     2.2595130236    -0.9688838949
    8      C       2.7354203816     0.8382481823    -0.9167331783
    9      C       3.8378464003     2.8703054402    -1.4177652870
   10      N       3.8962194266     0.1432725293    -1.1383102953
   11      N       3.9987537793     4.1689238087    -1.5790636079
   12      C       4.9954064726     2.1430890243    -1.6957076617
   13      C       5.0346841054     0.7702686607    -1.4853377098
   14      S       5.5253892834     4.4611683023    -2.0836814768
   15      N       6.0494540098     2.9343545702    -2.1226556973
   16      C       6.2559715024     0.0296238747    -1.4764273226
   17      S       7.9468045541     0.5603695937    -1.8994220895
   18      C       6.3096379297    -1.2783695383    -1.0183813140
   19      C       8.4870392826    -1.1373999934    -1.8291734796
   20      S       5.1724724512    -2.3439104605    -0.2547176330
   21      C       7.5106884090    -1.9507708804    -1.3336719440
   22      C       9.7883276252    -1.6130383956    -2.0289577624
   23      C       6.4279027682    -3.6015497476    -0.2632699692
   24      C       7.6134574443    -3.2577420928    -0.8997897305
   25      N      10.7715053554    -0.9021339308    -1.4637618735
   26      S      10.2222640732    -2.8820027847    -3.0662834289
   27      C      11.9841632702    -1.5084900597    -1.7573892338
   28      C      11.8604923324    -2.4667241711    -2.6789362412
   29      C      -2.3715559372     4.7160355964     0.1768044986
   30      H      -1.2544865862     2.7895773066     1.6643933272
   31      H       0.9704909889     1.7159157768     1.2283982471
   32      H       1.2495716251     4.3076019899    -2.2701908358
   33      H       1.8547351929     0.3294471221    -0.5269780251
   34      H       6.1101664323    -4.6097264927    -0.0323559774
   35      H       8.4261091552    -3.9733329543    -0.9436635921
   36      H      12.8812380235    -1.1484813528    -1.2721711201
   37      H      12.6812298845    -3.0265681496    -3.1077562388
   38      H      -2.8122512359     5.0975617862    -0.7516627438
   39      C      -2.0802006321     5.9276915051     1.0673459322
   40      H      -3.1193622577     4.0190373107     0.5778295563
   41      H      -1.3672004166     6.5737291478     0.5407957857
   42      H      -1.5429970304     5.4965182667     1.9211585163
   43      C      -3.3523332818     6.8661845044     1.3245198263
   44      H      -3.8554457545     6.9401680668     0.3518866620
   45      C      -2.8612869148     8.2302046630     1.8231153260
   46      H      -4.0359892057     6.4274231179     2.0614160357
   47      H      -3.7457643545     8.8546373902     1.6497214744
   48      H      -2.1161737767     8.5501507978     1.0839949825
   49      C      -2.4594576511     8.2843571958     3.2767867972
   50      H      -3.1501484432     7.8614367331     4.0166114466
   51      C      -2.0901761223     9.7243263747     3.7051393578
   52      H      -1.5810991750     7.6435929896     3.4278682962
   53      H      -1.8251752063     9.7859502896     4.7681854564
   54      H      -2.8899412422    10.4753140379     3.6803546279
   55      H      -1.1754689432    10.0746355478     3.2129399473
   56      C      -9.3544544090    -2.5804789531    -1.5170117141
   57      C      -8.8955280682    -3.7181498161    -0.7868469237
   58      N      -8.6176175614    -1.4666806383    -1.6969860844
   59      C      -7.5464110717    -3.7238281225    -0.2641079001
   60      C      -7.3392550533    -1.4933603297    -1.1486590907
   61      C      -6.7984482390    -2.5283029328    -0.3670307917
   62      C      -5.4772712258    -2.4773004541     0.3505457178
   63      C      -4.7260827598    -3.6285862360     0.5772678757
   64      C      -4.9058195433    -1.2400306966     0.7413992988
   65      N      -3.4755386567    -3.5924250761     1.0814908587
   66      N      -5.5434640866    -0.0602738660     0.7297263840
   67      C      -3.5774400840    -1.1424575615     1.1488946919
   68      C      -2.8631439766    -2.4128635267     1.3364973430
   69      S      -4.4228685806     1.0309382205     1.0341321893
   70      N      -3.1051635967     0.0886424867     1.3055107539
   71      C      -1.4836544472    -2.3361552196     1.7382117611
   72      S      -0.2646251862    -1.0827346347     1.4282754801
   73      C      -0.8974555333    -3.2276457505     2.5717154903
   74      C       0.9325569861    -1.7175866275     2.5372826007
   75      S      -1.6302168968    -4.6502139774     3.3051828884
   76      C       0.3590767809    -2.8294204370     3.1120312712
   77      C       2.2578376425    -1.2882673167     2.6849244345
   78      C      -0.1507999633    -4.7527161023     4.2757445048
   79      C       0.8219851517    -3.7681639098     4.0490705087
   80      N       2.7145284222    -0.3864477715     1.8288730110
   81      S       3.4478405545    -1.6285203293     3.9683503017
   82      C       3.9369553707     0.1244125228     2.1570728210
   83      C       4.5292398768    -0.5529112965     3.2269524906
   84      C     -10.6761330833    -2.5413790552    -2.0904275144
   85      H      -9.5919596007    -4.5370922993    -0.6343761736
   86      H      -7.2504864151    -4.4620480390     0.4761757972
   87      H      -6.7499682650    -0.5827569895    -1.2460635980
   88      H      -4.9418033091    -4.6572408277     0.2918850177
   89      H      -0.0834676172    -5.5234025573     5.0335061712
   90      H       1.6619634080    -3.5982922352     4.7133190639
   91      H       4.4096278587     0.8359243039     1.4933012454
   92      H       5.5814136183    -0.5845982534     3.4758407273
   93      H     -10.6182472279    -2.4938662269    -3.1846714356
   94      C     -11.5599926750    -1.3726634581    -1.4523302844
   95      H     -11.1977814047    -3.4958664661    -1.9489750090
   96      H     -11.0188723325    -0.4238044591    -1.5459271592
   97      H     -11.6751169346    -1.5292436109    -0.3724071109
   98      C     -12.9919319635    -1.2918907632    -1.9293823211
   99      H     -13.4359083502    -2.2948739745    -1.9383067683
  100      C     -13.0473934043    -0.7937561800    -3.3656677961
  101      H     -13.4985657456    -0.6125955352    -1.2320027945
  102      H     -12.7444594343    -1.5943257166    -4.0507213903
  103      H     -12.3046100165    -0.0023408811    -3.5197997641
  104      C     -14.4472101260    -0.1820921786    -3.8228562638
  105      H     -15.2453556256    -0.9349170087    -3.8110436982
  106      C     -14.3881630938     0.4631682546    -5.1918900184
  107      H     -14.6050085166     0.5449695729    -3.0157442037
  108      H     -14.0249394592    -0.3015524704    -5.8891509482
  109      H     -13.6069887946     1.2321569090    -5.2461962206
  110      H     -15.3871013634     0.7101760078    -5.5723758965
 ----------------------------------------------------------------

    9   -5663.4985353526      8.64E-06 Convergence criterion met
 Total energy in the final basis set = -5663.4985353526

                    Orbital Energies (a.u.)
 --------------------------------------------------------------

 Alpha MOs
 -- Occupied --
-88.991 -88.982 -88.932 -88.929 -88.924 -88.922 -88.917 -88.908
-14.390 -14.387 -14.377 -14.364 -14.355 -14.342 -14.339 -14.338
-14.335 -14.314 -10.269 -10.269 -10.259 -10.258 -10.257 -10.249
-10.243 -10.243 -10.242 -10.240 -10.240 -10.234 -10.233 -10.231
-10.231 -10.230 -10.230 -10.229 -10.229 -10.229 -10.229 -10.225
-10.225 -10.223 -10.220 -10.219 -10.218 -10.214 -10.212 -10.211
-10.211 -10.210 -10.208 -10.206 -10.204 -10.201 -10.198 -10.184
-10.184 -10.179 -10.179 -10.178 -10.177 -10.176 -10.175 -10.172
-10.172 -10.172 -10.169 -10.169  -8.047  -8.037  -7.994  -7.991
 -7.983  -7.979  -7.977  -7.967  -6.012  -6.006  -6.005  -6.002
 -5.997  -5.995  -5.958  -5.954  -5.954  -5.951  -5.951  -5.948
 -5.947  -5.944  -5.943  -5.941  -5.940  -5.939  -5.938  -5.936
 -5.933  -5.932  -5.928  -5.924  -1.054  -1.030  -0.971  -0.971
 -0.960  -0.946  -0.941  -0.932  -0.921  -0.915  -0.908  -0.892
 -0.847  -0.839  -0.838  -0.817  -0.816  -0.812  -0.810  -0.808
 -0.807  -0.805  -0.800  -0.795  -0.788  -0.780  -0.768  -0.765
 -0.752  -0.749  -0.747  -0.737  -0.722  -0.717  -0.714  -0.710
 -0.697  -0.692  -0.680  -0.668  -0.658  -0.650  -0.647  -0.640
 -0.634  -0.633  -0.631  -0.618  -0.612  -0.610  -0.599  -0.597
 -0.592  -0.591  -0.584  -0.583  -0.579  -0.573  -0.564  -0.562
 -0.552  -0.545  -0.542  -0.534  -0.528  -0.524  -0.520  -0.516
 -0.511  -0.503  -0.498  -0.497  -0.488  -0.485  -0.484  -0.478
 -0.472  -0.471  -0.466  -0.465  -0.459  -0.457  -0.454  -0.443
 -0.443  -0.442  -0.439  -0.437  -0.437  -0.433  -0.430  -0.428
 -0.427  -0.424  -0.423  -0.422  -0.422  -0.417  -0.415  -0.414
 -0.409  -0.408  -0.405  -0.404  -0.402  -0.400  -0.398  -0.397
 -0.397  -0.392  -0.391  -0.390  -0.387  -0.385  -0.385  -0.382
 -0.379  -0.375  -0.373  -0.371  -0.365  -0.364  -0.357  -0.354
 -0.352  -0.351  -0.350  -0.348  -0.343  -0.343  -0.341  -0.339
 -0.337  -0.333  -0.332  -0.330  -0.329  -0.324  -0.320  -0.319
 -0.318  -0.313  -0.310  -0.308  -0.302  -0.298  -0.297  -0.296
 -0.296  -0.294  -0.292  -0.287  -0.286  -0.279  -0.278  -0.278
 -0.277  -0.267  -0.265  -0.262  -0.258  -0.257  -0.253  -0.245
 -0.242  -0.240  -0.232  -0.226  -0.197  -0.189

          Ground-State Mulliken Net Atomic Charges

     Atom                 Charge (a.u.)
  ----------------------------------------
      1 C                     0.265864
      2 C                    -0.101757
      3 N                    -0.469487
      4 C                    -0.085060
      5 C                     0.096050
      6 C                     0.007517
      7 C                     0.016727
      8 C                     0.066535
      9 C                     0.239812
     10 N                    -0.554553
     11 N                    -0.564417
     12 C                     0.183541
     13 C                     0.318923
     14 S                     0.600073
     15 N                    -0.563823
     16 C                    -0.224228
     17 S                     0.344699
     18 C                    -0.109307
     19 C                    -0.188418
     20 S                     0.302687
     21 C                     0.124140
     22 C                     0.005400
     23 C                    -0.322923
     24 C                    -0.063094
     25 N                    -0.417171
     26 S                     0.291113
     27 C                     0.129185
     28 C                    -0.302600
     29 C                    -0.229771
     30 H                     0.095895
     31 H                     0.123764
     32 H                     0.109261
     33 H                     0.134676
     34 H                     0.122954
     35 H                     0.117727
     36 H                     0.117902
     37 H                     0.123345
     38 H                     0.110182
     39 C                    -0.180631
     40 H                     0.088843
     41 H                     0.111861
     42 H                     0.091272
     43 C                    -0.186647
     44 H                     0.092518
     45 C                    -0.161860
     46 H                     0.089085
     47 H                     0.086701
     48 H                     0.096108
     49 C                    -0.172530
     50 H                     0.094577
     51 C                    -0.323232
     52 H                     0.099030
     53 H                     0.091897
     54 H                     0.103506
     55 H                     0.105875
     56 C                     0.297366
     57 C                    -0.127448
     58 N                    -0.488505
     59 C                    -0.099382
     60 C                     0.071188
     61 C                     0.065848
     62 C                     0.054854
     63 C                     0.040822
     64 C                     0.202843
     65 N                    -0.516002
     66 N                    -0.534450
     67 C                     0.214652
     68 C                     0.271583
     69 S                     0.607767
     70 N                    -0.565100
     71 C                    -0.204237
     72 S                     0.355554
     73 C                    -0.119664
     74 C                    -0.216385
     75 S                     0.287278
     76 C                     0.126644
     77 C                     0.072523
     78 C                    -0.301033
     79 C                    -0.086759
     80 N                    -0.438406
     81 S                     0.271691
     82 C                     0.130586
     83 C                    -0.312484
     84 C                    -0.234483
     85 H                     0.093086
     86 H                     0.106120
     87 H                     0.114194
     88 H                     0.123221
     89 H                     0.125034
     90 H                     0.114593
     91 H                     0.118481
     92 H                     0.147781
     93 H                     0.124788
     94 C                    -0.180233
     95 H                     0.088364
     96 H                     0.125116
     97 H                     0.086266
     98 C                    -0.175169
     99 H                     0.091176
    100 C                    -0.175631
    101 H                     0.090441
    102 H                     0.086817
    103 H                     0.093069
    104 C                    -0.174887
    105 H                     0.089614
    106 C                    -0.315656
    107 H                     0.091968
    108 H                     0.100044
    109 H                     0.105535
    110 H                     0.101269
  ----------------------------------------
  Sum of atomic charges =     0.000000

                    Cartesian Multipole Moments
 -----------------------------------------------------------------
    Charge (ESU x 10^10)
                 0.0000
    Dipole Moment (Debye)
         X       1.2844      Y      -4.5473      Z       3.2579
       Tot       5.7395
    Quadrupole Moments (Debye-Ang)
        XX    -389.4292     XY      -6.0670     YY    -427.1440
        XZ      -7.5109     YZ       1.4453     ZZ    -436.8735

 Total job time:  91.00s(wall), 990.74s(cpu)
        *  Thank you very much for using Q-Chem.  Have a nice day.  *
