 Q-Chem 4.4, Q-Chem, Inc., Pleasanton, CA (2016)
 Q-Chem 4.4.2 for Intel X86 Linux

User input:
--------------------------------------------------------------
$comment
SP
$end

$rem
MEM_STATIC 5000
MEM_TOTAL 20000
JOBTYPE SP
EXCHANGE B3LYP
BASIS 6-31g(d,p)
$end

$molecule
0 1
C          11.480000     11.105000      1.123000
C          10.387000     11.481000      0.262000
N          11.427000     11.406000      2.452000
C           9.192000     11.945000      0.856000
C          10.320000     11.984000      2.967000
C           9.156000     12.212000      2.246000
C           7.897000     12.739000      2.892000
C           7.040000     13.656000      2.264000
C           7.354000     12.082000      4.027000
N           5.763000     13.923000      2.703000
N           7.967000     11.115000      4.655000
C           6.171000     12.431000      4.618000
C           5.350000     13.346000      3.858000
S           6.964000     10.663000      5.840000
N           5.671000     11.595000      5.557000
C           4.017000     13.807000      4.336000
S           2.528000     13.904000      3.403000
C           3.753000     14.101000      5.676000
C           1.599000     14.423000      4.824000
S           4.875000     14.205000      7.035000
C           2.450000     14.524000      5.890000
C           0.202000     14.823000      4.815000
C           3.453000     14.776000      7.993000
C           2.258000     14.899000      7.286000
N          -0.393000     14.546000      3.647000
S          -0.544000     16.001000      5.767000
C          -1.578000     15.253000      3.564000
C          -1.715000     16.200000      4.552000
C          12.771000     10.475000      0.673000
H          10.462000     11.299000     -0.806000
H           8.327000     12.156000      0.234000
H          10.322000     12.250000      4.023000
H           7.261000     14.071000      1.281000
H           3.653000     14.964000      9.040000
H           1.276000     15.156000      7.668000
H          -2.192000     15.185000      2.676000
H          -2.543000     16.885000      4.679000
H          12.787000     10.526000     -0.423000
C          12.809000      8.953000      1.143000
H          13.651000     10.992000      1.076000
H          12.005000      8.410000      0.631000
H          12.726000      8.837000      2.231000
C          14.139000      8.259000      0.632000
H          14.415000      8.756000     -0.306000
C          13.994000      6.771000      0.254000
H          14.920000      8.416000      1.386000
H          13.280000      6.730000     -0.577000
H          13.540000      6.270000      1.117000
C          15.276000      6.109000     -0.214000
H          15.775000      6.671000     -1.012000
C          15.017000      4.571000     -0.471000
H          15.996000      6.167000      0.612000
H          15.904000      3.927000     -0.523000
H          14.346000      4.493000     -1.335000
H          14.447000      4.132000      0.357000
C          -9.958000     13.496000      2.552000
C          -8.916000     13.165000      1.634000
N          -9.902000     14.549000      3.391000
C          -7.762000     14.032000      1.534000
C          -8.761000     15.339000      3.293000
C          -7.650000     15.085000      2.471000
C          -6.359000     15.857000      2.490000
C          -5.576000     15.996000      1.346000
C          -5.939000     16.549000      3.654000
N          -4.497000     16.804000      1.298000
N          -6.488000     16.413000      4.870000
C          -4.909000     17.486000      3.618000
C          -4.158000     17.574000      2.358000
S          -5.822000     17.550000      5.766000
N          -4.735000     18.203000      4.722000
C          -3.102000     18.549000      2.291000
S          -2.920000     20.105000      3.127000
C          -1.948000     18.355000      1.610000
C          -1.255000     20.370000      2.654000
S          -1.491000     16.948000      0.656000
C          -0.897000     19.269000      1.909000
C          -0.498000     21.533000      2.846000
C           0.120000     17.683000      0.581000
C           0.285000     18.910000      1.240000
N          -1.116000     22.600000      3.330000
S           1.258000     21.807000      2.703000
C          -0.278000     23.621000      3.674000
C           1.039000     23.392000      3.265000
C         -11.145000     12.686000      2.662000
H          -9.023000     12.254000      1.053000
H          -6.866000     13.692000      1.022000
H          -8.681000     16.166000      3.997000
H          -5.754000     15.616000      0.341000
H           0.914000     17.136000      0.088000
H           1.255000     19.349000      1.445000
H          -0.696000     24.550000      4.038000
H           1.812000     24.133000      3.112000
H         -12.029000     13.257000      2.353000
C         -11.285000     12.042000      4.118000
H         -11.145000     11.880000      1.918000
H         -11.234000     12.840000      4.868000
H         -10.425000     11.395000      4.332000
C         -12.458000     11.110000      4.318000
H         -12.533000     10.422000      3.467000
C         -13.762000     11.893000      4.343000
H         -12.265000     10.590000      5.265000
H         -14.033000     12.200000      3.326000
H         -13.627000     12.834000      4.889000
C         -14.991000     11.151000      5.037000
H         -15.280000     10.243000      4.493000
C         -16.203000     12.045000      5.198000
H         -14.529000     10.883000      5.996000
H         -16.458000     12.419000      4.199000
H         -15.961000     12.964000      5.747000
H         -17.093000     11.479000      5.500000
$end

--------------------------------------------------------------

             Standard Nuclear Orientation (Angstroms)
    I     Atom           X                Y                Z
 ----------------------------------------------------------------
    1      C     -11.6333357808     0.6385656435    -1.3389862676
    2      C     -10.5463565316     0.5649832126    -2.2826004565
    3      N     -11.4087436327     0.3459315953    -0.0261364358
    4      C      -9.2325978275     0.4157495403    -1.7846804042
    5      C     -10.1565662639     0.0648764953     0.3955481239
    6      C      -9.0286124518     0.1509237501    -0.4088380196
    7      C      -7.6333072828    -0.0434088629     0.1347466755
    8      C      -6.6191498816    -0.7030322804    -0.5766629904
    9      C      -7.1943181704     0.7176690722     1.2495434892
   10      N      -5.2877818902    -0.6390670329    -0.2329964101
   11      N      -7.9859239863     1.4881180799     1.9459704838
   12      C      -5.9216355255     0.6765521120     1.7487020621
   13      C      -4.9523192099     0.0111577185     0.9081414268
   14      S      -7.0475167133     2.1682962148     3.0734843396
   15      N      -5.5839756891     1.6018848844     2.6762591197
   16      C      -3.5147055088    -0.0984967040     1.2811518209
   17      S      -2.1221674121     0.1998514478     0.2473022044
   18      C      -3.0876311393    -0.3304466405     2.5909375705
   19      C      -0.9906452657    -0.0801782600     1.5862883862
   20      S      -4.0440522225    -0.7339692752     4.0188763629
   21      C      -1.7078582878    -0.4080218704     2.7038222997
   22      C       0.4576648553    -0.1088832493     1.4711197394
   23      C      -2.4576314814    -0.9326660959     4.8613001315
   24      C      -1.3255043750    -0.7373493864     4.0719063149
   25      N       0.8757695579     0.3246786091     0.2743780912
   26      S       1.5463738483    -1.0673680621     2.3351357070
   27      C       2.1924414634    -0.0542145405     0.0905899671
   28      C       2.6376991876    -0.9458209662     1.0384852887
   29      C     -13.0714473909     0.9220067933    -1.6818814581
   30      H     -10.7428414472     0.7339611271    -3.3372156196
   31      H      -8.3900801935     0.4405065924    -2.4696483778
   32      H     -10.0138137638    -0.2048780409     1.4408950586
   33      H      -6.7981936621    -1.1494706805    -1.5544109536
   34      H      -2.5263260696    -1.1776392887     5.9133563032
   35      H      -0.2852990940    -0.7386232985     4.3789378288
   36      H       2.7024928495     0.1789828593    -0.8344130362
   37      H       3.6198208354    -1.3973027294     1.0888766219
   38      H     -13.1537436209     0.8812069683    -2.7753327395
   39      C     -13.4614406513     2.3779968065    -1.1653291004
   40      H     -13.7589920275     0.1922591945    -1.2359567843
   41      H     -12.8617444404     3.1146614913    -1.7140536186
   42      H     -13.3316734640     2.4988768303    -0.0824452207
   43      C     -14.9579020995     2.7140102603    -1.5645221527
   44      H     -15.1658203595     2.1737083991    -2.4961191127
   45      C     -15.2245593452     4.1937534276    -1.9070233529
   46      H     -15.6160869442     2.3535530560    -0.7645288314
   47      H     -14.6070508804     4.4258119142    -2.7827345808
   48      H     -14.8514821980     4.7843754050    -1.0621179605
   49      C     -16.6634530928     4.5106369479    -2.2675252499
   50      H     -17.0596525849     3.8487810777    -3.0463845245
   51      C     -16.8240991797     6.0665178018    -2.4955638498
   52      H     -17.2827823010     4.2606673672    -1.3969010252
   53      H     -17.8472077389     6.4623963310    -2.4683964733
   54      H     -16.2598817086     6.3237048562    -3.4001822580
   55      H     -16.3259264869     6.6273261044    -1.6952370316
   56      C       9.7519441205     3.8020938613    -1.4320387095
   57      C       8.5959835770     3.8656849368    -2.2673592450
   58      N      10.0272334056     2.7603087404    -0.6228628502
   59      C       7.6967084317     2.7332355848    -2.3149793917
   60      C       9.1210306873     1.7055922619    -0.6670757801
   61      C       7.9251383179     1.6759808355    -1.4042905414
   62      C       6.8782341897     0.5988980228    -1.3211619606
   63      C       6.0752470057     0.2771357500    -2.4133279838
   64      C       6.7342719155    -0.1909219121    -0.1525647956
   65      N       5.2370566898    -0.7796731865    -2.4123974232
   66      N       7.3176272072     0.0671777252     1.0271106601
   67      C       5.9770570838    -1.3600059955    -0.1468111309
   68      C       5.1834873007    -1.6229438448    -1.3553042781
   69      S       7.0302494657    -1.2126968464     1.9318073577
   70      N       6.0723029377    -2.1102915955     0.9446011402
   71      C       4.4086196115    -2.8350609984    -1.3798413957
   72      S       4.6902857043    -4.3952707378    -0.5801128284
   73      C       3.1968162219    -2.9353007498    -1.9753223250
   74      C       3.1177792869    -5.0724423938    -0.9473200116
   75      S       2.3283213071    -1.6814247735    -2.8540291128
   76      C       2.4379026399    -4.0913818013    -1.6333796727
   77      C       2.6979791112    -6.3926668626    -0.7393364435
   78      C       0.9565757147    -2.8036275121    -2.8419442889
   79      C       1.1579545139    -4.0394467231    -2.2100958442
   80      N       3.6008937563    -7.2712698573    -0.3301043317
   81      S       1.0640591137    -7.1056378153    -0.7715678328
   82      C       3.0778996646    -8.4767344913     0.0391560049
   83      C       1.7198233863    -8.5880196179    -0.2730225387
   84      C      10.6982848806     4.8877861213    -1.3783685827
   85      H       8.4248327070     4.7803150826    -2.8269037706
   86      H       6.7088225223     2.8382564067    -2.7549930926
   87      H       9.3057874533     0.8776565437     0.0158095572
   88      H       6.0768925045     0.7015733322    -3.4163030738
   89      H       0.0157158895    -2.4726186822    -3.2637380108
   90      H       0.3493344869    -4.7145786950    -1.9532369874
   91      H       3.7440714018    -9.2717986092     0.3463192595
   92      H       1.1519904679    -9.5004843561    -0.3954679482
   93      H      11.6736075274     4.5658470507    -1.7631788859
   94      C      10.7753675023     5.5293877441     0.0833692964
   95      H      10.4388190621     5.6753926262    -2.0963696150
   96      H      10.9840548383     4.7363819900     0.8110343771
   97      H       9.7969115390     5.9320251757     0.3740788192
   98      C      11.6836970658     6.7283818422     0.2313677986
   99      H      11.5188063307     7.4223723764    -0.6019137769
  100      C      13.1423417249     6.3052682694     0.1449926685
  101      H      11.4341658570     7.1706841182     1.2042813983
  102      H      13.4077436785     6.0896288472    -0.8966600772
  103      H      13.2915824372     5.3548713267     0.6706302444
  104      C      14.1890500311     7.3292808291     0.7762144988
  105      H      14.1968582198     8.2872026908     0.2411951169
  106      C      15.5971573235     6.7737505575     0.8283774229
  107      H      13.7451762011     7.4589685658     1.7717576240
  108      H      15.8655046052     6.4890457746    -0.1962371012
  109      H      15.6378359458     5.8171772916     1.3648835614
  110      H      16.3332332384     7.5453207954     1.0863146546
 ----------------------------------------------------------------

    9   -5663.5001117963      7.11E-06 Convergence criterion met
 Total energy in the final basis set = -5663.5001117963

                    Orbital Energies (a.u.)
 --------------------------------------------------------------

 Alpha MOs
 -- Occupied --
-88.994 -88.987 -88.928 -88.926 -88.921 -88.919 -88.914 -88.910
-14.393 -14.391 -14.390 -14.379 -14.356 -14.350 -14.340 -14.336
-14.335 -14.327 -10.270 -10.267 -10.263 -10.260 -10.260 -10.258
-10.254 -10.251 -10.245 -10.239 -10.239 -10.237 -10.235 -10.234
-10.233 -10.232 -10.232 -10.231 -10.230 -10.230 -10.229 -10.229
-10.229 -10.226 -10.224 -10.223 -10.221 -10.220 -10.219 -10.219
-10.215 -10.213 -10.210 -10.209 -10.208 -10.206 -10.203 -10.202
-10.192 -10.186 -10.185 -10.181 -10.180 -10.177 -10.177 -10.176
-10.176 -10.176 -10.173 -10.170  -8.050  -8.044  -7.989  -7.989
 -7.980  -7.977  -7.973  -7.970  -6.015  -6.009  -6.008  -6.008
 -6.003  -6.001  -5.953  -5.953  -5.950  -5.949  -5.946  -5.946
 -5.945  -5.942  -5.941  -5.938  -5.938  -5.937  -5.935  -5.934
 -5.934  -5.931  -5.930  -5.926  -1.057  -1.057  -0.969  -0.966
 -0.962  -0.948  -0.933  -0.931  -0.923  -0.920  -0.915  -0.904
 -0.844  -0.840  -0.836  -0.829  -0.817  -0.811  -0.809  -0.808
 -0.808  -0.800  -0.800  -0.791  -0.782  -0.781  -0.769  -0.764
 -0.751  -0.746  -0.745  -0.738  -0.720  -0.718  -0.713  -0.707
 -0.697  -0.691  -0.681  -0.670  -0.659  -0.656  -0.652  -0.642
 -0.641  -0.636  -0.632  -0.625  -0.612  -0.603  -0.599  -0.595
 -0.591  -0.590  -0.584  -0.582  -0.579  -0.576  -0.570  -0.562
 -0.553  -0.546  -0.544  -0.540  -0.529  -0.522  -0.522  -0.515
 -0.511  -0.508  -0.503  -0.498  -0.489  -0.487  -0.485  -0.480
 -0.479  -0.473  -0.471  -0.470  -0.466  -0.466  -0.455  -0.443
 -0.443  -0.442  -0.441  -0.435  -0.433  -0.432  -0.431  -0.428
 -0.426  -0.424  -0.424  -0.422  -0.421  -0.416  -0.415  -0.414
 -0.412  -0.404  -0.404  -0.402  -0.400  -0.399  -0.398  -0.397
 -0.395  -0.394  -0.392  -0.390  -0.389  -0.386  -0.385  -0.380
 -0.376  -0.375  -0.373  -0.371  -0.368  -0.366  -0.363  -0.360
 -0.360  -0.355  -0.352  -0.352  -0.349  -0.346  -0.343  -0.343
 -0.338  -0.337  -0.334  -0.333  -0.330  -0.328  -0.321  -0.320
 -0.319  -0.317  -0.314  -0.314  -0.310  -0.307  -0.304  -0.298
 -0.296  -0.294  -0.293  -0.288  -0.287  -0.282  -0.279  -0.279
 -0.276  -0.275  -0.268  -0.264  -0.259  -0.255  -0.248  -0.248
 -0.243  -0.241  -0.233  -0.232  -0.195  -0.193

          Ground-State Mulliken Net Atomic Charges

     Atom                 Charge (a.u.)
  ----------------------------------------
      1 C                     0.268897
      2 C                    -0.130481
      3 N                    -0.485519
      4 C                    -0.077801
      5 C                     0.097736
      6 C                     0.046439
      7 C                     0.023999
      8 C                     0.037368
      9 C                     0.240044
     10 N                    -0.475078
     11 N                    -0.533184
     12 C                     0.154504
     13 C                     0.222690
     14 S                     0.602665
     15 N                    -0.475031
     16 C                    -0.216967
     17 S                     0.337163
     18 C                    -0.105559
     19 C                    -0.223176
     20 S                     0.248880
     21 C                     0.138194
     22 C                     0.047422
     23 C                    -0.304753
     24 C                    -0.061861
     25 N                    -0.433350
     26 S                     0.293089
     27 C                     0.120770
     28 C                    -0.322728
     29 C                    -0.219137
     30 H                     0.090486
     31 H                     0.100720
     32 H                     0.107120
     33 H                     0.111442
     34 H                     0.129028
     35 H                     0.111616
     36 H                     0.117668
     37 H                     0.144620
     38 H                     0.092836
     39 C                    -0.184600
     40 H                     0.125403
     41 H                     0.095321
     42 H                     0.121354
     43 C                    -0.185388
     44 H                     0.088252
     45 C                    -0.170334
     46 H                     0.094131
     47 H                     0.087845
     48 H                     0.093310
     49 C                    -0.175865
     50 H                     0.094285
     51 C                    -0.323017
     52 H                     0.092995
     53 H                     0.100735
     54 H                     0.104154
     55 H                     0.104382
     56 C                     0.297320
     57 C                    -0.126732
     58 N                    -0.488901
     59 C                    -0.099529
     60 C                     0.070911
     61 C                     0.066277
     62 C                     0.056078
     63 C                     0.038919
     64 C                     0.206530
     65 N                    -0.518279
     66 N                    -0.531933
     67 C                     0.216328
     68 C                     0.261375
     69 S                     0.602347
     70 N                    -0.567763
     71 C                    -0.202744
     72 S                     0.343495
     73 C                    -0.112775
     74 C                    -0.206794
     75 S                     0.289033
     76 C                     0.131402
     77 C                     0.057341
     78 C                    -0.293428
     79 C                    -0.089367
     80 N                    -0.424988
     81 S                     0.277978
     82 C                     0.113040
     83 C                    -0.314846
     84 C                    -0.234215
     85 H                     0.094038
     86 H                     0.107442
     87 H                     0.112537
     88 H                     0.124950
     89 H                     0.131099
     90 H                     0.117018
     91 H                     0.117933
     92 H                     0.142017
     93 H                     0.124429
     94 C                    -0.180464
     95 H                     0.088756
     96 H                     0.124620
     97 H                     0.086986
     98 C                    -0.175044
     99 H                     0.091498
    100 C                    -0.175685
    101 H                     0.090657
    102 H                     0.086718
    103 H                     0.092697
    104 C                    -0.174599
    105 H                     0.089765
    106 C                    -0.315680
    107 H                     0.091989
    108 H                     0.099996
    109 H                     0.105145
    110 H                     0.101368
  ----------------------------------------
  Sum of atomic charges =     0.000000

                    Cartesian Multipole Moments
 -----------------------------------------------------------------
    Charge (ESU x 10^10)
                 0.0000
    Dipole Moment (Debye)
         X      -0.9382      Y      -0.1585      Z      -0.3442
       Tot       1.0119
    Quadrupole Moments (Debye-Ang)
        XX    -452.0275     XY       8.8619     YY    -419.7218
        XZ      10.3200     YZ     -12.8526     ZZ    -425.0407

 Total job time:  87.62s(wall), 944.36s(cpu)
        *  Thank you very much for using Q-Chem.  Have a nice day.  *
