 Q-Chem 4.4, Q-Chem, Inc., Pleasanton, CA (2016)
 Q-Chem 4.4.2 for Intel X86 Linux

User input:
--------------------------------------------------------------
$comment
SP
$end

$rem
MEM_STATIC 5000
MEM_TOTAL 20000
JOBTYPE SP
EXCHANGE B3LYP
BASIS 6-31g(d,p)
$end

$molecule
0 1
C           1.117000     19.255000     10.528000
C           2.376000     19.909000     10.614000
N           0.863000     18.314000      9.594000
C           3.320000     19.635000      9.628000
C           1.751000     18.055000      8.620000
C           3.014000     18.690000      8.585000
C           3.993000     18.294000      7.406000
C           5.389000     18.233000      7.631000
C           3.587000     18.029000      6.117000
N           6.322000     17.765000      6.749000
N           2.381000     18.142000      5.614000
C           4.516000     17.750000      5.121000
C           5.889000     17.563000      5.455000
S           2.459000     17.727000      4.020000
N           4.042000     17.542000      3.867000
C           6.973000     17.118000      4.565000
S           8.517000     16.296000      5.131000
C           7.284000     17.660000      3.271000
C           9.201000     16.336000      3.513000
S           6.482000     19.007000      2.502000
C           8.459000     17.164000      2.696000
C          10.481000     15.859000      3.238000
C           7.677000     18.802000      1.184000
C           8.674000     17.878000      1.447000
N          10.866000     15.700000      1.967000
S          11.499000     15.078000      4.419000
C          12.206000     15.326000      1.932000
C          12.725000     14.932000      3.159000
C          -0.060000     19.538000     11.499000
H           2.501000     20.613000     11.432000
H           4.293000     20.118000      9.598000
H           1.443000     17.386000      7.817000
H           5.735000     18.389000      8.652000
H           7.626000     19.502000      0.361000
H           9.516000     17.681000      0.793000
H          12.669000     15.291000      0.955000
H          13.657000     14.405000      3.314000
H          -0.191000     20.624000     11.412000
C           0.118000     19.110000     12.963000
H          -0.978000     19.126000     11.061000
H          -0.749000     19.449000     13.543000
H           0.992000     19.667000     13.323000
C           0.276000     17.569000     13.188000
H          -0.648000     17.066000     12.878000
C           0.491000     17.153000     14.653000
H           1.118000     17.283000     12.546000
H          -0.487000     17.267000     15.136000
H           1.096000     17.930000     15.136000
C           1.062000     15.709000     14.729000
H           0.346000     15.095000     14.169000
C           1.305000     15.356000     16.172000
H           1.963000     15.625000     14.108000
H           1.749000     16.190000     16.730000
H           1.820000     14.407000     16.364000
H           0.339000     15.197000     16.668000
C          -9.958000     13.496000      2.552000
C          -8.916000     13.165000      1.634000
N          -9.902000     14.549000      3.391000
C          -7.762000     14.032000      1.534000
C          -8.761000     15.339000      3.293000
C          -7.650000     15.085000      2.471000
C          -6.359000     15.857000      2.490000
C          -5.576000     15.996000      1.346000
C          -5.939000     16.549000      3.654000
N          -4.497000     16.804000      1.298000
N          -6.488000     16.413000      4.870000
C          -4.909000     17.486000      3.618000
C          -4.158000     17.574000      2.358000
S          -5.822000     17.550000      5.766000
N          -4.735000     18.203000      4.722000
C          -3.102000     18.549000      2.291000
S          -2.920000     20.105000      3.127000
C          -1.948000     18.355000      1.610000
C          -1.255000     20.370000      2.654000
S          -1.491000     16.948000      0.656000
C          -0.897000     19.269000      1.909000
C          -0.498000     21.533000      2.846000
C           0.120000     17.683000      0.581000
C           0.285000     18.910000      1.240000
N          -1.116000     22.600000      3.330000
S           1.258000     21.807000      2.703000
C          -0.278000     23.621000      3.674000
C           1.039000     23.392000      3.265000
C         -11.145000     12.686000      2.662000
H          -9.023000     12.254000      1.053000
H          -6.866000     13.692000      1.022000
H          -8.681000     16.166000      3.997000
H          -5.754000     15.616000      0.341000
H           0.914000     17.136000      0.088000
H           1.255000     19.349000      1.445000
H          -0.696000     24.550000      4.038000
H           1.812000     24.133000      3.112000
H         -12.029000     13.257000      2.353000
C         -11.285000     12.042000      4.118000
H         -11.145000     11.880000      1.918000
H         -11.234000     12.840000      4.868000
H         -10.425000     11.395000      4.332000
C         -12.458000     11.110000      4.318000
H         -12.533000     10.422000      3.467000
C         -13.762000     11.893000      4.343000
H         -12.265000     10.590000      5.265000
H         -14.033000     12.200000      3.326000
H         -13.627000     12.834000      4.889000
C         -14.991000     11.151000      5.037000
H         -15.280000     10.243000      4.493000
C         -16.203000     12.045000      5.198000
H         -14.529000     10.883000      5.996000
H         -16.458000     12.419000      4.199000
H         -15.961000     12.964000      5.747000
H         -17.093000     11.479000      5.500000
$end

--------------------------------------------------------------

             Standard Nuclear Orientation (Angstroms)
    I     Atom           X                Y                Z
 ----------------------------------------------------------------
    1      C      -1.8288645063    -5.6149708338    -1.7104445549
    2      C      -3.1855241544    -5.6367222735    -2.1337582378
    3      N      -1.3659845714    -4.6905059758    -0.8424238799
    4      C      -4.0144034064    -4.5995834140    -1.7145802664
    5      C      -2.1430498308    -3.6684620131    -0.4475862917
    6      C      -3.4940133279    -3.5690638530    -0.8533406942
    7      C      -4.3259231415    -2.3365991367    -0.3108881295
    8      C      -5.6995850095    -2.4855228002    -0.0042339022
    9      C      -3.8132152260    -1.0698605520    -0.1403420908
   10      N      -6.4891692501    -1.5516781325     0.6056249861
   11      N      -2.6209597954    -0.6333946471    -0.4693382946
   12      C      -4.6259508649    -0.0235169122     0.2809936051
   13      C      -5.9606627820    -0.2817771592     0.7093623049
   14      S      -2.5420205825     0.9649157634    -0.0714470628
   15      N      -4.0581689610     1.2042645822     0.3841067072
   16      C      -6.9023170967     0.6680737684     1.3227556264
   17      S      -8.3062901547     0.1911419289     2.4096648558
   18      C      -7.2353500460     1.9737546674     0.8235488108
   19      C      -8.9014498041     1.8434524107     2.4647562680
   20      S      -6.6420950824     2.6903526552    -0.6541216099
   21      C      -8.2739897300     2.6142860163     1.5078098704
   22      C     -10.0622906547     2.1899844357     3.1531733475
   23      C      -7.7125131585     4.0721475659    -0.2642216648
   24      C      -8.5450360950     3.8688331204     0.8232169756
   25      N     -10.3467807045     3.4808371279     3.3574078665
   26      S     -10.9883143387     1.0703145299     4.1174686543
   27      C     -11.5971281733     3.5903549339     3.9585218802
   28      C     -12.1025469942     2.3955204722     4.4555615410
   29      C      -0.7716831100    -6.6497669674    -2.1792978978
   30      H      -3.4741029570    -6.4509240703    -2.7926684811
   31      H      -5.0539282845    -4.5199397188    -2.0211139667
   32      H      -1.6814381508    -2.8793268258     0.1452157942
   33      H      -6.1202779101    -3.4872530579    -0.0819961940
   34      H      -7.7417846370     4.8870424494    -0.9748689116
   35      H      -9.3043917468     4.5684992576     1.1538758489
   36      H     -11.9953082845     4.5911210578     4.0587354740
   37      H     -12.9349054943     2.2941909060     5.1391474145
   38      H      -0.8281245007    -6.5763860136    -3.2727125515
   39      C      -0.9482354558    -8.0994645286    -1.7045661312
   40      H       0.2257575905    -6.2595511947    -1.9402253150
   41      H      -0.1852555533    -8.7274289289    -2.1805203099
   42      H      -1.9236862170    -8.4150281919    -2.0952583206
   43      C      -0.8460242650    -8.3064953654    -0.1563539025
   44      H       0.1665445010    -8.0438769229     0.1732231717
   45      C      -1.0611053226    -9.7552643599     0.3130228537
   46      H      -1.5904526491    -7.6182856545     0.2621168549
   47      H      -0.1446101069   -10.2910365506     0.0377889907
   48      H      -1.8169254491   -10.2094722185    -0.3392609477
   49      C      -1.3741508287    -9.7917864125     1.8353965433
   50      H      -0.5336619590    -9.2676493062     2.3066828191
   51      C      -1.6266246825   -11.2174481314     2.2472856259
   52      H      -2.2129846714    -9.1225532213     2.0655762996
   53      H      -2.2380158834   -11.7555759989     1.5119794328
   54      H      -1.9771596076   -11.3757475946     3.2742990368
   55      H      -0.6748987331   -11.7639401130     2.2431345575
   56      C      10.4826747924     1.7852316962     1.9091251173
   57      C       9.5638543320     2.7600997226     2.4025319401
   58      N      10.1998555526     0.9442728598     0.8948926424
   59      C       8.2829095598     2.9171451627     1.7483742983
   60      C       8.9450444143     1.0990742092     0.3143148704
   61      C       7.9399197865     1.9813550145     0.7453903433
   62      C       6.5346692982     2.0275354387     0.2104469506
   63      C       5.8001555658     3.2113068359     0.1925344879
   64      C       5.9400943639     0.8838453607    -0.3799881880
   65      N       4.6005522785     3.3127276726    -0.4158032201
   66      N       6.4402537887    -0.3592015020    -0.3231722839
   67      C       4.7655007183     0.9698757317    -1.1236907784
   68      C       4.0774108262     2.2680491906    -1.0987313936
   69      S       5.5400125361    -1.2246326204    -1.3129882599
   70      N       4.4115601417    -0.1273345974    -1.7825052909
   71      C       2.8722288963     2.3862132610    -1.8757923747
   72      S       2.3777786809     1.5520819992    -3.3633743128
   73      C       1.8069886501     3.1296697390    -1.4941529069
   74      C       0.7190513279     2.1127274908    -3.3414836425
   75      S       1.6532685468     4.1152522675    -0.0437697819
   76      C       0.5982999759     2.8824646394    -2.2064445097
   77      C      -0.2385018376     1.9550172525    -4.3517813293
   78      C      -0.0552490074     4.2727924426    -0.4879767835
   79      C      -0.4662623158     3.6164257300    -1.6572867505
   80      N       0.1574393622     1.4320556732    -5.5026117916
   81      S      -2.0054817638     2.1910108041    -4.3178699159
   82      C      -0.8628658131     1.1277828556    -6.3566705728
   83      C      -2.0964381308     1.6086497126    -5.9080310707
   84      C      11.7855839347     1.6160822448     2.5015651817
   85      H       9.8585517717     3.3398465106     3.2720019400
   86      H       7.4880452756     3.4787818695     2.2314011912
   87      H       8.6851603213     0.3955473535    -0.4752769364
   88      H       6.0939758916     4.2074561828     0.5203531797
   89      H      -0.7146406872     4.8111722822     0.1813839271
   90      H      -1.5074010119     3.4615143847    -1.9174380347
   91      H      -0.6331983907     0.7362594203    -7.3386192856
   92      H      -2.9779897667     1.7987874479    -6.5053026630
   93      H      12.5710876189     1.8735164410     1.7806701847
   94      C      11.9598626115     0.1584771730     3.1334563095
   95      H      11.9652253008     2.3637459438     3.2838055367
   96      H      11.7311616465    -0.5923764099     2.3680676724
   97      H      11.2161908072    -0.0049442438     3.9235516758
   98      C      13.2656337838    -0.0990625581     3.8498276744
   99      H      13.5039755799     0.7506959665     4.5011905825
  100      C      14.4096327342    -0.1990677082     2.8521326450
  101      H      13.1173658836    -1.0311699097     4.4098727752
  102      H      14.6754645530     0.7999828104     2.4871525012
  103      H      14.0839871194    -0.7425314355     1.9574684004
  104      C      15.7115054233    -0.9540246320     3.3792081088
  105      H      16.1826975228    -0.4210688984     4.2145865807
  106      C      16.7385587735    -1.1855168353     2.2903216245
  107      H      15.2540851925    -1.8850772617     3.7381743094
  108      H      16.9760120113    -0.2039716111     1.8624350358
  109      H      16.3113955667    -1.7260681694     1.4360021001
  110      H      17.6967981616    -1.5317865269     2.6971810300
 ----------------------------------------------------------------

   10   -5663.5027630079      3.38E-06 Convergence criterion met
 Total energy in the final basis set = -5663.5027630079

                    Orbital Energies (a.u.)
 --------------------------------------------------------------

 Alpha MOs
 -- Occupied --
-88.990 -88.987 -88.928 -88.925 -88.924 -88.920 -88.915 -88.914
-14.389 -14.387 -14.383 -14.375 -14.353 -14.352 -14.341 -14.338
-14.333 -14.324 -10.266 -10.266 -10.265 -10.265 -10.257 -10.255
-10.254 -10.252 -10.248 -10.241 -10.240 -10.239 -10.237 -10.237
-10.236 -10.232 -10.232 -10.232 -10.231 -10.231 -10.231 -10.229
-10.229 -10.228 -10.228 -10.227 -10.227 -10.223 -10.223 -10.218
-10.217 -10.216 -10.213 -10.209 -10.206 -10.206 -10.205 -10.205
-10.185 -10.184 -10.183 -10.178 -10.178 -10.176 -10.174 -10.174
-10.173 -10.171 -10.170 -10.169  -8.045  -8.043  -7.989  -7.986
 -7.983  -7.979  -7.975  -7.974  -6.010  -6.009  -6.005  -6.003
 -6.003  -6.001  -5.953  -5.950  -5.949  -5.947  -5.947  -5.946
 -5.944  -5.943  -5.943  -5.939  -5.939  -5.939  -5.939  -5.936
 -5.935  -5.935  -5.931  -5.930  -1.051  -1.048  -0.968  -0.963
 -0.957  -0.949  -0.932  -0.930  -0.918  -0.914  -0.912  -0.905
 -0.845  -0.843  -0.836  -0.825  -0.814  -0.808  -0.808  -0.806
 -0.802  -0.800  -0.798  -0.794  -0.783  -0.779  -0.766  -0.766
 -0.750  -0.749  -0.746  -0.741  -0.721  -0.719  -0.712  -0.709
 -0.696  -0.695  -0.677  -0.674  -0.657  -0.651  -0.648  -0.646
 -0.638  -0.635  -0.629  -0.625  -0.610  -0.608  -0.598  -0.594
 -0.590  -0.587  -0.585  -0.583  -0.580  -0.578  -0.567  -0.561
 -0.553  -0.550  -0.543  -0.539  -0.526  -0.522  -0.521  -0.510
 -0.509  -0.504  -0.500  -0.500  -0.486  -0.483  -0.482  -0.476
 -0.475  -0.472  -0.471  -0.469  -0.464  -0.459  -0.453  -0.443
 -0.441  -0.440  -0.438  -0.436  -0.434  -0.434  -0.433  -0.432
 -0.430  -0.428  -0.423  -0.421  -0.420  -0.416  -0.414  -0.413
 -0.412  -0.406  -0.403  -0.402  -0.400  -0.399  -0.397  -0.396
 -0.395  -0.394  -0.392  -0.390  -0.388  -0.387  -0.384  -0.383
 -0.378  -0.376  -0.372  -0.372  -0.370  -0.367  -0.365  -0.363
 -0.352  -0.351  -0.350  -0.349  -0.346  -0.345  -0.344  -0.341
 -0.341  -0.337  -0.332  -0.330  -0.328  -0.328  -0.319  -0.318
 -0.316  -0.314  -0.312  -0.310  -0.308  -0.302  -0.301  -0.299
 -0.297  -0.295  -0.292  -0.292  -0.284  -0.284  -0.280  -0.276
 -0.274  -0.273  -0.268  -0.265  -0.257  -0.254  -0.254  -0.244
 -0.242  -0.242  -0.233  -0.230  -0.195  -0.194

          Ground-State Mulliken Net Atomic Charges

     Atom                 Charge (a.u.)
  ----------------------------------------
      1 C                     0.263092
      2 C                    -0.112895
      3 N                    -0.481890
      4 C                    -0.083376
      5 C                     0.091570
      6 C                     0.034081
      7 C                     0.032117
      8 C                     0.050016
      9 C                     0.281259
     10 N                    -0.499603
     11 N                    -0.568849
     12 C                     0.173351
     13 C                     0.238950
     14 S                     0.608854
     15 N                    -0.525933
     16 C                    -0.193944
     17 S                     0.311461
     18 C                    -0.147411
     19 C                    -0.216239
     20 S                     0.264808
     21 C                     0.174727
     22 C                     0.052234
     23 C                    -0.295737
     24 C                    -0.059102
     25 N                    -0.432911
     26 S                     0.270503
     27 C                     0.117183
     28 C                    -0.309277
     29 C                    -0.225615
     30 H                     0.094918
     31 H                     0.100371
     32 H                     0.121532
     33 H                     0.110120
     34 H                     0.128217
     35 H                     0.125506
     36 H                     0.115212
     37 H                     0.133452
     38 H                     0.099999
     39 C                    -0.186382
     40 H                     0.118473
     41 H                     0.093611
     42 H                     0.086965
     43 C                    -0.172319
     44 H                     0.097299
     45 C                    -0.177694
     46 H                     0.099978
     47 H                     0.091346
     48 H                     0.086423
     49 C                    -0.168524
     50 H                     0.097454
     51 C                    -0.318160
     52 H                     0.096933
     53 H                     0.105590
     54 H                     0.097004
     55 H                     0.102096
     56 C                     0.296596
     57 C                    -0.127175
     58 N                    -0.489520
     59 C                    -0.099197
     60 C                     0.071576
     61 C                     0.065086
     62 C                     0.055544
     63 C                     0.039958
     64 C                     0.203042
     65 N                    -0.516116
     66 N                    -0.533805
     67 C                     0.214483
     68 C                     0.269966
     69 S                     0.604263
     70 N                    -0.556073
     71 C                    -0.196428
     72 S                     0.355980
     73 C                    -0.117535
     74 C                    -0.204264
     75 S                     0.286916
     76 C                     0.124820
     77 C                     0.059552
     78 C                    -0.303281
     79 C                    -0.091136
     80 N                    -0.423745
     81 S                     0.270731
     82 C                     0.114599
     83 C                    -0.315620
     84 C                    -0.234222
     85 H                     0.092619
     86 H                     0.106363
     87 H                     0.113433
     88 H                     0.122227
     89 H                     0.126324
     90 H                     0.112610
     91 H                     0.117953
     92 H                     0.141056
     93 H                     0.124081
     94 C                    -0.179999
     95 H                     0.088206
     96 H                     0.124868
     97 H                     0.086480
     98 C                    -0.175139
     99 H                     0.091154
    100 C                    -0.175170
    101 H                     0.090381
    102 H                     0.086664
    103 H                     0.092763
    104 C                    -0.174827
    105 H                     0.089559
    106 C                    -0.315695
    107 H                     0.091950
    108 H                     0.099923
    109 H                     0.105276
    110 H                     0.101102
  ----------------------------------------
  Sum of atomic charges =     0.000000

                    Cartesian Multipole Moments
 -----------------------------------------------------------------
    Charge (ESU x 10^10)
                 0.0000
    Dipole Moment (Debye)
         X      -3.0602      Y       0.7941      Z       0.0589
       Tot       3.1621
    Quadrupole Moments (Debye-Ang)
        XX    -415.2176     XY      -1.3602     YY    -426.0878
        XZ      18.4263     YZ      15.7955     ZZ    -426.9112

 Total job time:  90.78s(wall), 964.43s(cpu)
        *  Thank you very much for using Q-Chem.  Have a nice day.  *
