 Q-Chem 4.4, Q-Chem, Inc., Pleasanton, CA (2016)
 Q-Chem 4.4.2 for Intel X86 Linux

User input:
--------------------------------------------------------------
$comment
SP
$end

$rem
MEM_STATIC 5000
MEM_TOTAL 20000
JOBTYPE SP
EXCHANGE B3LYP
BASIS 6-31g(d,p)
$end

$molecule
0 1
C           3.335000    -17.752000     -6.129000
C           2.920000    -18.174000     -4.835000
N           2.631000    -16.973000     -6.881000
C           1.590000    -18.008000     -4.489000
C           1.360000    -16.703000     -6.523000
C           0.719000    -17.344000     -5.381000
C          -0.611000    -16.754000     -4.942000
C          -0.912000    -15.342000     -4.944000
C          -1.600000    -17.543000     -4.459000
N          -2.005000    -14.875000     -4.420000
N          -1.531000    -18.906000     -4.426000
C          -2.786000    -17.089000     -3.956000
C          -2.952000    -15.694000     -3.951000
S          -3.002000    -19.450000     -3.922000
N          -3.732000    -18.010000     -3.562000
C          -4.146000    -15.094000     -3.306000
S          -5.190000    -15.777000     -1.940000
C          -4.540000    -13.801000     -3.482000
C          -6.050000    -14.292000     -1.641000
S          -3.926000    -12.618000     -4.589000
C          -5.520000    -13.395000     -2.526000
C          -6.971000    -13.989000     -0.631000
C          -5.180000    -11.581000     -3.941000
C          -5.929000    -12.129000     -2.872000
N          -7.181000    -12.730000     -0.249000
S          -7.415000    -15.193000      0.564000
C          -7.693000    -12.621000      1.000000
C          -7.923000    -13.869000      1.643000
C           4.715000    -18.053000     -6.638000
H           3.630000    -18.790000     -4.290000
H           1.269000    -18.317000     -3.499000
H           0.916000    -15.868000     -7.062000
H          -0.172000    -14.573000     -5.159000
H          -5.238000    -10.589000     -4.369000
H          -6.762000    -11.645000     -2.376000
H          -7.888000    -11.683000      1.504000
H          -8.463000    -14.043000      2.565000
H           4.928000    -18.986000     -6.101000
C           5.836000    -17.014000     -6.335000
H           4.700000    -18.303000     -7.706000
H           6.834000    -17.469000     -6.311000
H           5.786000    -16.582000     -5.328000
C           5.760000    -15.862000     -7.379000
H           5.485000    -16.102000     -8.413000
C           6.995000    -14.981000     -7.431000
H           4.950000    -15.196000     -7.058000
H           7.918000    -15.503000     -7.714000
H           7.073000    -14.648000     -6.389000
C           6.792000    -13.973000     -8.478000
H           6.688000    -14.467000     -9.452000
C           7.959000    -12.922000     -8.535000
H           5.848000    -13.428000     -8.355000
H           7.890000    -12.199000     -9.357000
H           8.914000    -13.460000     -8.567000
H           8.118000    -12.281000     -7.659000
C           5.260000    -21.881000     -3.850000
C           6.227000    -22.846000     -4.042000
N           5.564000    -20.671000     -3.291000
C           7.577000    -22.568000     -3.865000
C           6.863000    -20.408000     -3.065000
C           7.977000    -21.223000     -3.427000
C           9.434000    -20.822000     -3.166000
C          10.400000    -21.603000     -2.569000
C           9.842000    -19.518000     -3.467000
N          11.710000    -21.243000     -2.455000
N           9.046000    -18.572000     -3.880000
C          11.176000    -19.165000     -3.378000
C          12.062000    -20.072000     -2.860000
S          10.069000    -17.296000     -4.160000
N          11.494000    -17.922000     -3.704000
C          13.563000    -19.938000     -2.720000
S          14.470000    -20.597000     -1.394000
C          14.379000    -19.114000     -3.490000
C          15.973000    -19.818000     -1.987000
S          14.090000    -18.268000     -5.025000
C          15.708000    -19.142000     -3.138000
C          17.307000    -20.134000     -1.610000
C          15.791000    -17.926000     -5.103000
C          16.575000    -18.436000     -4.058000
N          18.116000    -19.173000     -1.564000
S          17.730000    -21.533000     -0.677000
C          19.233000    -19.432000     -0.863000
C          19.248000    -20.707000     -0.357000
C           3.717000    -22.283000     -3.984000
H           5.972000    -23.823000     -4.443000
H           8.310000    -23.313000     -4.161000
H           7.004000    -19.458000     -2.553000
H          10.089000    -22.596000     -2.249000
H          16.131000    -17.257000     -5.883000
H          17.638000    -18.263000     -3.932000
H          19.948000    -18.643000     -0.672000
H          20.007000    -21.149000      0.275000
H           3.597000    -23.353000     -3.771000
C           3.171000    -21.887000     -5.332000
H           3.238000    -21.653000     -3.225000
H           3.656000    -22.507000     -6.096000
H           3.343000    -20.827000     -5.556000
C           1.589000    -22.041000     -5.264000
H           1.238000    -23.006000     -4.879000
C           0.931000    -21.809000     -6.636000
H           1.241000    -21.276000     -4.560000
H           1.469000    -22.422000     -7.370000
H           1.054000    -20.755000     -6.915000
C          -0.628000    -21.942000     -6.664000
H          -0.874000    -22.966000     -6.360000
C          -1.236000    -21.503000     -8.026000
H          -1.115000    -21.376000     -5.860000
H          -0.802000    -22.080000     -8.852000
H          -1.009000    -20.441000     -8.186000
H          -2.327000    -21.610000     -8.060000
$end

--------------------------------------------------------------

             Standard Nuclear Orientation (Angstroms)
    I     Atom           X                Y                Z
 ----------------------------------------------------------------
    1      C       1.1849647563    -0.4201502770     2.3531228491
    2      C       1.4978263498    -0.7561034166     1.0062753776
    3      N       2.0442559754     0.0793644154     3.1777831869
    4      C       2.8319912252    -0.8492628977     0.6492076019
    5      C       3.3443961870     0.1014290963     2.8233066998
    6      C       3.8276992020    -0.5160580397     1.5940574034
    7      C       5.2576262470    -0.1876706263     1.1975837567
    8      C       5.8689330544     1.1091379453     1.3677028797
    9      C       6.0448239944    -1.1099082535     0.5944847056
   10      N       7.0404814610     1.3825193415     0.8777529403
   11      N       5.6706771893    -2.4073350248     0.3936939151
   12      C       7.3039957477    -0.8725710141     0.1213266658
   13      C       7.7799625363     0.4389088717     0.2858931423
   14      S       6.9827301027    -3.1980087209    -0.2122312111
   15      N       8.0193197087    -1.9240653923    -0.4088282205
   16      C       9.0802078338     0.8336078607    -0.3101235307
   17      S       9.9473125862     0.1138692275    -1.7772590555
   18      C       9.7548382525     1.9724724720     0.0153333717
   19      C      11.1205281464     1.3944439255    -1.9111235090
   20      S       9.4200220249     3.1121067529     1.2767079393
   21      C      10.8037468718     2.2671743890    -0.9077665624
   22      C      12.0889022506     1.6096913108    -2.8990861386
   23      C      10.8771664176     3.9160348022     0.7306137073
   24      C      11.4864394701     3.3549568915    -0.4174472343
   25      N      12.5781482201     2.8278892691    -3.1265440814
   26      S      12.2536012858     0.4990034706    -4.2459431278
   27      C      13.1049982604     2.9776093455    -4.3651073352
   28      C      13.0497585799     1.8020366757    -5.1643760483
   29      C      -0.2287745882    -0.4669979933     2.8563408508
   30      H       0.6688315520    -1.1231133230     0.4073994691
   31      H       3.0778801585    -1.0936804272    -0.3795881523
   32      H       3.9635734742     0.7403421846     3.4504363137
   33      H       5.3205724286     1.9904414261     1.6960179702
   34      H      11.1559358264     4.8071548308     1.2772440315
   35      H      12.4084221418     3.6993793149    -0.8707486212
   36      H      13.5076632255     3.9045083495    -4.7531848562
   37      H      13.5392388173     1.6304119891    -6.1145939517
   38      H      -0.6449688303    -1.2525513866     2.2129784187
   39      C      -1.0860919796     0.8263837129     2.7144195611
   40      H      -0.2734284564    -0.8478519173     3.8841080037
   41      H      -2.1608620812     0.6130838662     2.6598539662
   42      H      -0.9372826778     1.3607963825     1.7681469312
   43      C      -0.7554509975     1.7896866117     3.8915092204
   44      H      -0.5444408527     1.3646453539     4.8800412877
   45      C      -1.7604101179     2.9107212992     4.0849734179
   46      H       0.1846333128     2.2928500096     3.6350621800
   47      H      -2.7780493158     2.5768260269     4.3246114993
   48      H      -1.7585134878     3.3825659356     3.0949754170
   49      C      -1.3384771874     3.7060778357     5.2437928957
   50      H      -1.3511185895     3.0814955103     6.1456050234
   51      C      -2.2389059171     4.9755314308     5.4616338303
   52      H      -0.2956399915     4.0371360951     5.1651734848
   53      H      -2.0111013950     5.5541118124     6.3652509182
   54      H      -3.2906317402     4.6652800486     5.4511518036
   55      H      -2.2470108861     5.7419942247     4.6767726355
   56      C      -1.6142941092    -3.6892186530    -0.3718448126
   57      C      -2.7743348954    -4.4297576997    -0.2765279993
   58      N      -1.6363842966    -2.3808304979    -0.7676092113
   59      C      -4.0265282283    -3.8365247198    -0.3823556351
   60      C      -2.8421314990    -1.8072675865    -0.9252330377
   61      C      -4.1120776309    -2.3916047256    -0.6387859573
   62      C      -5.4405829072    -1.6448841154    -0.8098212200
   63      C      -6.5560197289    -2.1074330412    -1.4741819562
   64      C      -5.5452076250    -0.3318436952    -0.3381650704
   65      N      -7.7509453058    -1.4519318029    -1.5083432255
   66      N      -4.5577262987     0.3516011228     0.1686729817
   67      C      -6.7651622856     0.3190819632    -0.3477782435
   68      C      -7.8312551030    -0.2931756441    -0.9515627473
   69      S      -5.2677929236     1.7778698534     0.6319956514
   70      N      -6.7959094779     1.5498580618     0.1387336325
   71      C      -9.2631053908     0.1899889707    -1.0347114589
   72      S     -10.2915603904    -0.0750945485    -2.4084716424
   73      C      -9.8746604958     1.0708106509    -0.1470823014
   74      C     -11.5821041782     0.9384929089    -1.6841538959
   75      S      -9.4067789185     1.6282763811     1.4733438121
   76      C     -11.1748346867     1.3859290542    -0.4651647831
   77      C     -12.9519517755     0.9796176040    -2.0627926678
   78      C     -10.9872408903     2.3294386318     1.6375401997
   79      C     -11.8630733717     2.1450488753     0.5578648400
   80      N     -13.5235689916     2.0951070261    -1.9676343399
   81      S     -13.6766173700    -0.1588435084    -3.1515465755
   82      C     -14.6682579521     2.1839899604    -2.6661742512
   83      C     -14.9686615172     1.0197124945    -3.3265542028
   84      C      -0.2018728920    -4.4399857828    -0.3291362443
   85      H      -2.7470653569    -5.4819254775    -0.0071688719
   86      H      -4.9093169122    -4.4300735332    -0.1625513000
   87      H      -2.7641054736    -0.7925716709    -1.3110168351
   88      H      -6.4757974896    -3.0958315937    -1.9234065034
   89      H     -11.1699712209     2.9527017331     2.5034003113
   90      H     -12.8594353623     2.5661107726     0.4820778867
   91      H     -15.1866322460     3.1306964284    -2.7387135846
   92      H     -15.8059630875     0.8428752438    -3.9887653981
   93      H      -0.3253817557    -5.4736690560    -0.6768623594
   94      C       0.4155597577    -4.3510617437     1.0430537711
   95      H       0.4088225019    -3.8418012116    -1.0159028384
   96      H      -0.1987427948    -4.9388771068     1.7361818061
   97      H       0.4861222161    -3.3168059260     1.4017957996
   98      C       1.9223990413    -4.8452050253     0.9152970077
   99      H       2.0480800489    -5.8072251247     0.4040508707
  100      C       2.6119460983    -4.9428695814     2.2879435357
  101      H       2.4357175090    -4.0942573177     0.3033111491
  102      H       1.9476655432    -5.5082435456     2.9535655191
  103      H       2.7287454065    -3.9323755365     2.6992168109
  104      C       4.1008409584    -5.4237918793     2.2586205229
  105      H       4.1107068933    -6.4296376435     1.8230921518
  106      C       4.7883269324    -5.3089718111     3.6484436726
  107      H       4.7050395041    -4.8835134632     1.5190366194
  108      H       4.2332275481    -5.8745386762     4.4071002450
  109      H       4.8059306815    -4.2523314455     3.9453851580
  110      H       5.8270902481    -5.6608145184     3.6404760358
 ----------------------------------------------------------------

   10   -5663.4706681325      5.94E-06 Convergence criterion met
 Total energy in the final basis set = -5663.4706681325

                    Orbital Energies (a.u.)
 --------------------------------------------------------------

 Alpha MOs
 -- Occupied --
-88.992 -88.990 -88.924 -88.924 -88.921 -88.919 -88.909 -88.906
-14.396 -14.391 -14.388 -14.381 -14.349 -14.349 -14.342 -14.340
-14.332 -14.321 -10.268 -10.260 -10.258 -10.256 -10.254 -10.253
-10.250 -10.246 -10.243 -10.241 -10.240 -10.236 -10.236 -10.236
-10.235 -10.235 -10.233 -10.231 -10.229 -10.229 -10.229 -10.227
-10.226 -10.224 -10.224 -10.224 -10.223 -10.223 -10.221 -10.220
-10.219 -10.212 -10.201 -10.200 -10.198 -10.197 -10.192 -10.192
-10.187 -10.183 -10.181 -10.177 -10.177 -10.175 -10.173 -10.171
-10.170 -10.168 -10.166 -10.165  -8.047  -8.046  -7.985  -7.983
 -7.983  -7.978  -7.969  -7.967  -6.012  -6.011  -6.007  -6.006
 -6.005  -6.004  -5.949  -5.947  -5.947  -5.945  -5.944  -5.943
 -5.943  -5.942  -5.940  -5.939  -5.939  -5.934  -5.934  -5.931
 -5.930  -5.927  -5.926  -5.923  -1.059  -1.032  -0.991  -0.978
 -0.972  -0.967  -0.947  -0.940  -0.929  -0.911  -0.910  -0.898
 -0.843  -0.842  -0.834  -0.833  -0.814  -0.811  -0.806  -0.805
 -0.804  -0.799  -0.798  -0.797  -0.784  -0.783  -0.771  -0.767
 -0.749  -0.749  -0.740  -0.738  -0.723  -0.718  -0.706  -0.703
 -0.694  -0.688  -0.678  -0.678  -0.661  -0.656  -0.651  -0.646
 -0.635  -0.635  -0.628  -0.627  -0.612  -0.607  -0.601  -0.594
 -0.592  -0.591  -0.581  -0.579  -0.579  -0.576  -0.571  -0.569
 -0.560  -0.553  -0.545  -0.538  -0.525  -0.520  -0.512  -0.508
 -0.506  -0.505  -0.503  -0.495  -0.494  -0.488  -0.486  -0.478
 -0.477  -0.473  -0.470  -0.469  -0.467  -0.460  -0.453  -0.449
 -0.443  -0.440  -0.439  -0.435  -0.434  -0.431  -0.428  -0.426
 -0.425  -0.424  -0.423  -0.419  -0.418  -0.417  -0.417  -0.412
 -0.409  -0.406  -0.403  -0.403  -0.401  -0.400  -0.396  -0.396
 -0.395  -0.395  -0.393  -0.391  -0.389  -0.384  -0.383  -0.379
 -0.378  -0.374  -0.371  -0.365  -0.364  -0.363  -0.361  -0.360
 -0.355  -0.353  -0.351  -0.349  -0.346  -0.344  -0.343  -0.342
 -0.340  -0.334  -0.333  -0.330  -0.329  -0.328  -0.323  -0.321
 -0.316  -0.313  -0.311  -0.309  -0.305  -0.303  -0.299  -0.297
 -0.296  -0.292  -0.290  -0.289  -0.286  -0.285  -0.282  -0.279
 -0.277  -0.274  -0.274  -0.264  -0.260  -0.251  -0.249  -0.247
 -0.246  -0.239  -0.236  -0.227  -0.193  -0.187

          Ground-State Mulliken Net Atomic Charges

     Atom                 Charge (a.u.)
  ----------------------------------------
      1 C                     0.268935
      2 C                    -0.128937
      3 N                    -0.458997
      4 C                    -0.052369
      5 C                     0.062384
      6 C                     0.009314
      7 C                    -0.011962
      8 C                     0.065603
      9 C                     0.265099
     10 N                    -0.496361
     11 N                    -0.560342
     12 C                     0.205598
     13 C                     0.265125
     14 S                     0.616766
     15 N                    -0.561635
     16 C                    -0.215236
     17 S                     0.299397
     18 C                    -0.092939
     19 C                    -0.190758
     20 S                     0.292617
     21 C                     0.134381
     22 C                     0.053219
     23 C                    -0.312305
     24 C                    -0.063386
     25 N                    -0.433456
     26 S                     0.257874
     27 C                     0.130652
     28 C                    -0.318498
     29 C                    -0.222028
     30 H                     0.124937
     31 H                     0.109011
     32 H                     0.104578
     33 H                     0.118358
     34 H                     0.121507
     35 H                     0.121611
     36 H                     0.121685
     37 H                     0.136424
     38 H                     0.091938
     39 C                    -0.186264
     40 H                     0.112986
     41 H                     0.098893
     42 H                     0.096052
     43 C                    -0.172967
     44 H                     0.090580
     45 C                    -0.155160
     46 H                     0.106608
     47 H                     0.083330
     48 H                     0.085504
     49 C                    -0.173767
     50 H                     0.097608
     51 C                    -0.327246
     52 H                     0.092651
     53 H                     0.096079
     54 H                     0.094987
     55 H                     0.099913
     56 C                     0.249059
     57 C                    -0.107482
     58 N                    -0.480052
     59 C                    -0.086564
     60 C                     0.098850
     61 C                     0.022045
     62 C                     0.043345
     63 C                     0.045787
     64 C                     0.262804
     65 N                    -0.505210
     66 N                    -0.561624
     67 C                     0.212246
     68 C                     0.289523
     69 S                     0.593007
     70 N                    -0.532598
     71 C                    -0.224974
     72 S                     0.310600
     73 C                    -0.103712
     74 C                    -0.224293
     75 S                     0.264410
     76 C                     0.149735
     77 C                     0.036928
     78 C                    -0.310925
     79 C                    -0.043459
     80 N                    -0.395565
     81 S                     0.253732
     82 C                     0.122766
     83 C                    -0.318381
     84 C                    -0.219465
     85 H                     0.091670
     86 H                     0.104990
     87 H                     0.111989
     88 H                     0.108768
     89 H                     0.127851
     90 H                     0.122302
     91 H                     0.116452
     92 H                     0.129895
     93 H                     0.104762
     94 C                    -0.184579
     95 H                     0.118064
     96 H                     0.090783
     97 H                     0.117841
     98 C                    -0.188369
     99 H                     0.085320
    100 C                    -0.169017
    101 H                     0.104889
    102 H                     0.086782
    103 H                     0.099802
    104 C                    -0.192352
    105 H                     0.081676
    106 C                    -0.319066
    107 H                     0.103518
    108 H                     0.103136
    109 H                     0.108880
    110 H                     0.095891
  ----------------------------------------
  Sum of atomic charges =     0.000000

                    Cartesian Multipole Moments
 -----------------------------------------------------------------
    Charge (ESU x 10^10)
                 0.0000
    Dipole Moment (Debye)
         X      -1.7176      Y      -1.2777      Z      -2.1440
       Tot       3.0298
    Quadrupole Moments (Debye-Ang)
        XX    -397.4182     XY       1.4779     YY    -427.6972
        XZ     -15.1597     YZ       1.6955     ZZ    -434.4836

 Total job time:  98.92s(wall), 1079.13s(cpu)
        *  Thank you very much for using Q-Chem.  Have a nice day.  *
