 Q-Chem 4.4, Q-Chem, Inc., Pleasanton, CA (2016)
 Q-Chem 4.4.2 for Intel X86 Linux

User input:
--------------------------------------------------------------
$comment
SP
$end

$rem
MEM_STATIC 5000
MEM_TOTAL 20000
JOBTYPE SP
EXCHANGE B3LYP
BASIS 6-31g(d,p)
$end

$molecule
0 1
C          19.253000    -27.008000     13.332000
C          20.454000    -26.339000     13.126000
N          18.213000    -26.870000     12.410000
C          20.659000    -25.569000     12.027000
C          18.444000    -26.249000     11.210000
C          19.657000    -25.484000     10.976000
C          19.788000    -24.576000      9.768000
C          18.709000    -23.800000      9.398000
C          21.036000    -24.411000      9.156000
N          18.938000    -22.793000      8.483000
N          22.163000    -25.123000      9.425000
C          21.149000    -23.493000      8.135000
C          20.091000    -22.581000      7.876000
S          23.288000    -24.516000      8.322000
N          22.376000    -23.391000      7.490000
C          20.146000    -21.594000      6.784000
S          21.207000    -21.606000      5.371000
C          19.520000    -20.361000      6.816000
C          20.595000    -20.045000      4.768000
S          18.607000    -19.599000      8.052000
C          19.783000    -19.551000      5.739000
C          21.000000    -19.381000      3.527000
C          18.629000    -18.042000      7.154000
C          19.348000    -18.260000      5.958000
N          21.052000    -18.026000      3.403000
S          21.876000    -20.234000      2.267000
C          21.698000    -17.688000      2.259000
C          22.200000    -18.717000      1.473000
C          18.874000    -27.740000     14.603000
H          21.158000    -26.383000     13.952000
H          21.513000    -24.912000     11.893000
H          17.550000    -26.127000     10.601000
H          17.724000    -24.011000      9.811000
H          18.105000    -17.137000      7.431000
H          19.579000    -17.446000      5.280000
H          21.601000    -16.677000      1.886000
H          22.661000    -18.593000      0.502000
H          18.074000    -28.450000     14.363000
C          18.343000    -26.846000     15.709000
H          19.757000    -28.329000     14.882000
H          19.251000    -26.365000     16.092000
H          17.942000    -27.475000     16.513000
C          17.219000    -25.763000     15.380000
H          17.139000    -25.019000     16.183000
C          15.960000    -26.460000     14.877000
H          17.508000    -25.238000     14.461000
H          15.830000    -27.255000     15.623000
H          16.118000    -26.994000     13.932000
C          14.654000    -25.584000     14.814000
H          13.758000    -26.216000     14.863000
C          14.634000    -24.736000     13.529000
H          14.621000    -24.871000     15.647000
H          13.901000    -23.921000     13.581000
H          14.310000    -25.337000     12.671000
H          15.552000    -24.152000     13.385000
C           5.260000    -21.881000     -3.850000
C           6.227000    -22.846000     -4.042000
N           5.564000    -20.671000     -3.291000
C           7.577000    -22.568000     -3.865000
C           6.863000    -20.408000     -3.065000
C           7.977000    -21.223000     -3.427000
C           9.434000    -20.822000     -3.166000
C          10.400000    -21.603000     -2.569000
C           9.842000    -19.518000     -3.467000
N          11.710000    -21.243000     -2.455000
N           9.046000    -18.572000     -3.880000
C          11.176000    -19.165000     -3.378000
C          12.062000    -20.072000     -2.860000
S          10.069000    -17.296000     -4.160000
N          11.494000    -17.922000     -3.704000
C          13.563000    -19.938000     -2.720000
S          14.470000    -20.597000     -1.394000
C          14.379000    -19.114000     -3.490000
C          15.973000    -19.818000     -1.987000
S          14.090000    -18.268000     -5.025000
C          15.708000    -19.142000     -3.138000
C          17.307000    -20.134000     -1.610000
C          15.791000    -17.926000     -5.103000
C          16.575000    -18.436000     -4.058000
N          18.116000    -19.173000     -1.564000
S          17.730000    -21.533000     -0.677000
C          19.233000    -19.432000     -0.863000
C          19.248000    -20.707000     -0.357000
C           3.717000    -22.283000     -3.984000
H           5.972000    -23.823000     -4.443000
H           8.310000    -23.313000     -4.161000
H           7.004000    -19.458000     -2.553000
H          10.089000    -22.596000     -2.249000
H          16.131000    -17.257000     -5.883000
H          17.638000    -18.263000     -3.932000
H          19.948000    -18.643000     -0.672000
H          20.007000    -21.149000      0.275000
H           3.597000    -23.353000     -3.771000
C           3.171000    -21.887000     -5.332000
H           3.238000    -21.653000     -3.225000
H           3.656000    -22.507000     -6.096000
H           3.343000    -20.827000     -5.556000
C           1.589000    -22.041000     -5.264000
H           1.238000    -23.006000     -4.879000
C           0.931000    -21.809000     -6.636000
H           1.241000    -21.276000     -4.560000
H           1.469000    -22.422000     -7.370000
H           1.054000    -20.755000     -6.915000
C          -0.628000    -21.942000     -6.664000
H          -0.874000    -22.966000     -6.360000
C          -1.236000    -21.503000     -8.026000
H          -1.115000    -21.376000     -5.860000
H          -0.802000    -22.080000     -8.852000
H          -1.009000    -20.441000     -8.186000
H          -2.327000    -21.610000     -8.060000
$end

--------------------------------------------------------------

             Standard Nuclear Orientation (Angstroms)
    I     Atom           X                Y                Z
 ----------------------------------------------------------------
    1      C      11.5694199447    -5.0414340356    -1.2272350733
    2      C      12.0651187720    -3.7551985343    -1.0475717559
    3      N      10.1902036118    -5.2616380986    -1.2265437679
    4      C      11.2378712484    -2.6892856940    -0.8985168947
    5      C       9.3297455581    -4.1949946164    -1.2563031310
    6      C       9.7954013287    -2.8410987666    -1.0083500489
    7      C       8.8151693739    -1.7090616879    -0.7664278150
    8      C       7.7139549113    -1.9407708561     0.0316665207
    9      C       9.1241331080    -0.4172926789    -1.2081825415
   10      N       6.9987570075    -0.8405580084     0.4579746817
   11      N      10.1691120687    -0.0696588800    -2.0060570388
   12      C       8.2708957691     0.6113173436    -0.8736956731
   13      C       7.2426527097     0.4017735956     0.0839037361
   14      S       9.9544637274     1.5885876671    -2.2402097215
   15      N       8.5526734597     1.8752929594    -1.3785966293
   16      C       6.2871462127     1.4566245116     0.4633175989
   17      S       5.9069116278     2.9376301338    -0.4223900319
   18      C       5.6969946666     1.5616107594     1.7098680553
   19      C       4.7924533759     3.5283778410     0.8361305087
   20      S       5.9084521758     0.6272678702     3.1326112110
   21      C       4.9163042529     2.6769851655     1.8878017846
   22      C       4.0048313956     4.7619105601     0.7808978459
   23      C       4.9781604628     1.8252402938     4.0972647245
   24      C       4.5781979757     2.8522703696     3.2140092505
   25      N       3.7092349974     5.4940509687     1.8902662209
   26      S       3.7675965846     5.6392497429    -0.7212940869
   27      C       3.2049113986     6.7008887101     1.5304101754
   28      C       3.1150169840     6.9844260312     0.1738827773
   29      C      12.4079672372    -6.3030757297    -1.2250731001
   30      H      13.1415224297    -3.6857224926    -0.9196802188
   31      H      11.5681596984    -1.6965362227    -0.6082083913
   32      H       8.2812116934    -4.4760193781    -1.1750454063
   33      H       7.4316456938    -2.9623615693     0.2806020956
   34      H       4.6939117724     1.7267080680     5.1364105672
   35      H       4.0755809417     3.7435237333     3.5727355511
   36      H       2.6873580882     7.2913799956     2.2748009415
   37      H       2.6595762499     7.8696241314    -0.2500701223
   38      H      11.8409217356    -7.0913141071    -1.7338359717
   39      C      12.7428003981    -6.8331823632     0.1574270668
   40      H      13.2832953965    -6.0799088857    -1.8483292058
   41      H      13.5258640528    -6.1461352079     0.4999055613
   42      H      13.1991949447    -7.8253815745     0.0569146650
   43      C      11.5901810464    -6.9752533427     1.2509491136
   44      H      12.0117814203    -7.0946354468     2.2573019533
   45      C      10.5306815706    -7.9561576459     0.7618820338
   46      H      10.9941618771    -6.0541757458     1.2417724974
   47      H      11.1454506430    -8.7999770264     0.4220749697
   48      H      10.0158424737    -7.6102462868    -0.1427897497
   49      C       9.4973789624    -8.4617052467     1.8359808856
   50      H       9.0721931570    -9.4300152572     1.5423250421
   51      C       8.3734664607    -7.4278440285     2.0326549056
   52      H       9.9768699141    -8.5767455525     2.8158794290
   53      H       7.8027572375    -7.6053079920     2.9529893688
   54      H       7.6278663575    -7.5064407146     1.2325023907
   55      H       8.7498111223    -6.4176822188     2.2386981383
   56      C     -11.1386175198    -4.0522817712    -0.4038795559
   57      C     -10.4974238277    -3.7040965783    -1.5746979536
   58      N     -10.7359737791    -3.5523835531     0.8031733798
   59      C      -9.5513776410    -2.6868464587    -1.6109168272
   60      C      -9.7831270678    -2.6039643317     0.7880035042
   61      C      -9.2016842582    -1.9930089774    -0.3630494113
   62      C      -8.1457571424    -0.8836466725    -0.2849200154
   63      C      -6.9455813270    -0.8514854503    -0.9617284580
   64      C      -8.3379703908     0.1725097238     0.6123362098
   65      N      -6.0865784066     0.2070329512    -0.9430528991
   66      N      -9.3203754981     0.2468280476     1.4658337154
   67      C      -7.4811767345     1.2578541790     0.6080883746
   68      C      -6.3693764654     1.2135169967    -0.1906001604
   69      S      -9.0994168073     1.7246429134     2.1871834775
   70      N      -7.7389676138     2.2331132360     1.4653296675
   71      C      -5.3296327511     2.2918214223    -0.4068166590
   72      S      -3.6416981136     1.9675600453    -0.6536713106
   73      C      -5.5295741203     3.6581536414    -0.2310562654
   74      C      -3.2625733049     3.7204761821    -0.6212923533
   75      S      -7.0123057401     4.6233482503    -0.0717819411
   76      C      -4.4124544111     4.4286422671    -0.4531369560
   77      C      -2.0733961456     4.3476654100    -1.0839286642
   78      C      -6.0445700864     6.0542325695    -0.2520782799
   79      C      -4.6717869464     5.8531631768    -0.4565741228
   80      N      -1.6897596823     5.3580016305    -0.4419303888
   81      S      -0.8603135564     3.5278009742    -2.0128376687
   82      C      -0.4060569448     5.6899145972    -0.6612750132
   83      C       0.2048305367     4.8494070222    -1.5569588309
   84      C     -12.1540315958    -5.2889448569    -0.4066484528
   85      H     -10.7908608558    -4.1402381890    -2.5255029841
   86      H      -9.1758165614    -2.3527366423    -2.5738573789
   87      H      -9.4745224142    -2.3193847018     1.7921462241
   88      H      -6.7313279866    -1.7021210536    -1.6064645098
   89      H      -6.5288650375     7.0086972990    -0.0907820290
   90      H      -3.9289020067     6.6395601199    -0.5305728672
   91      H       0.0562421110     6.4783181680    -0.0825467586
   92      H       1.2401294948     4.8718488419    -1.8708400698
   93      H     -11.8846989523    -5.9827542792    -1.2133438183
   94      C     -13.5822695241    -4.8146282949    -0.4914789843
   95      H     -12.0002663683    -5.7280424489     0.5863125533
   96      H     -13.7376945427    -4.3639838602    -1.4794484459
   97      H     -13.8249189943    -4.0822295208     0.2883115456
   98      C     -14.5142634023    -6.0666389600    -0.1833869437
   99      H     -14.2816735946    -6.9662333203    -0.7658669590
  100      C     -16.0034469612    -5.7376601372    -0.3914188213
  101      H     -14.3416172731    -6.3199980429     0.8692039023
  102      H     -16.1037646041    -5.2606200700    -1.3744438184
  103      H     -16.3175711996    -5.0155867463     0.3726636225
  104      C     -16.9964013265    -6.9144313248    -0.1117668940
  105      H     -16.7472617325    -7.7243078857    -0.8071354430
  106      C     -18.4821947907    -6.4578600756    -0.1490425712
  107      H     -16.8028610272    -7.4120209900     0.8468193972
  108      H     -18.7241474662    -5.9925964935    -1.1126554095
  109      H     -18.6420948543    -5.7172294843     0.6452314979
  110      H     -19.1854504131    -7.2805407985     0.0284791394
 ----------------------------------------------------------------

   11   -5663.4811261161      6.73E-06 Convergence criterion met
 Total energy in the final basis set = -5663.4811261161

                    Orbital Energies (a.u.)
 --------------------------------------------------------------

 Alpha MOs
 -- Occupied --
-88.993 -88.986 -88.935 -88.930 -88.920 -88.917 -88.908 -88.903
-14.404 -14.397 -14.392 -14.383 -14.352 -14.352 -14.345 -14.335
-14.331 -14.328 -10.282 -10.268 -10.261 -10.259 -10.254 -10.253
-10.250 -10.250 -10.249 -10.246 -10.246 -10.237 -10.237 -10.235
-10.235 -10.233 -10.233 -10.230 -10.230 -10.229 -10.227 -10.227
-10.226 -10.226 -10.225 -10.224 -10.223 -10.222 -10.221 -10.220
-10.218 -10.214 -10.201 -10.200 -10.197 -10.196 -10.195 -10.192
-10.188 -10.188 -10.185 -10.183 -10.180 -10.180 -10.176 -10.175
-10.175 -10.174 -10.165 -10.165  -8.048  -8.042  -7.996  -7.989
 -7.979  -7.979  -7.968  -7.964  -6.013  -6.008  -6.008  -6.006
 -6.002  -6.000  -5.960  -5.956  -5.954  -5.953  -5.950  -5.946
 -5.944  -5.943  -5.940  -5.940  -5.936  -5.936  -5.933  -5.929
 -5.928  -5.925  -5.925  -5.920  -1.055  -1.030  -0.988  -0.974
 -0.969  -0.962  -0.933  -0.925  -0.925  -0.922  -0.907  -0.906
 -0.846  -0.840  -0.832  -0.830  -0.811  -0.810  -0.807  -0.804
 -0.802  -0.801  -0.799  -0.794  -0.784  -0.781  -0.770  -0.769
 -0.751  -0.747  -0.739  -0.738  -0.725  -0.720  -0.709  -0.706
 -0.694  -0.691  -0.676  -0.675  -0.657  -0.656  -0.652  -0.647
 -0.639  -0.633  -0.625  -0.622  -0.618  -0.609  -0.601  -0.598
 -0.595  -0.588  -0.586  -0.580  -0.579  -0.575  -0.573  -0.560
 -0.556  -0.553  -0.541  -0.541  -0.528  -0.521  -0.514  -0.509
 -0.505  -0.503  -0.503  -0.502  -0.490  -0.487  -0.483  -0.482
 -0.474  -0.471  -0.471  -0.467  -0.464  -0.459  -0.457  -0.445
 -0.445  -0.441  -0.440  -0.440  -0.439  -0.437  -0.435  -0.435
 -0.427  -0.426  -0.425  -0.424  -0.422  -0.417  -0.414  -0.413
 -0.413  -0.409  -0.405  -0.400  -0.400  -0.399  -0.398  -0.396
 -0.394  -0.392  -0.392  -0.390  -0.388  -0.386  -0.381  -0.378
 -0.376  -0.375  -0.373  -0.372  -0.366  -0.362  -0.362  -0.360
 -0.353  -0.352  -0.351  -0.351  -0.349  -0.344  -0.341  -0.340
 -0.339  -0.336  -0.333  -0.333  -0.332  -0.330  -0.325  -0.323
 -0.319  -0.315  -0.313  -0.306  -0.300  -0.299  -0.297  -0.297
 -0.297  -0.295  -0.291  -0.288  -0.286  -0.284  -0.281  -0.278
 -0.277  -0.273  -0.270  -0.267  -0.256  -0.253  -0.250  -0.247
 -0.246  -0.243  -0.235  -0.235  -0.197  -0.190

          Ground-State Mulliken Net Atomic Charges

     Atom                 Charge (a.u.)
  ----------------------------------------
      1 C                     0.254105
      2 C                    -0.108255
      3 N                    -0.466131
      4 C                    -0.041079
      5 C                     0.054484
      6 C                     0.010627
      7 C                     0.013684
      8 C                     0.082346
      9 C                     0.281065
     10 N                    -0.513785
     11 N                    -0.562547
     12 C                     0.147061
     13 C                     0.296751
     14 S                     0.600119
     15 N                    -0.542943
     16 C                    -0.200092
     17 S                     0.332954
     18 C                    -0.120184
     19 C                    -0.237881
     20 S                     0.260346
     21 C                     0.183438
     22 C                     0.041663
     23 C                    -0.311963
     24 C                    -0.073493
     25 N                    -0.417179
     26 S                     0.262884
     27 C                     0.123273
     28 C                    -0.313902
     29 C                    -0.228165
     30 H                     0.091446
     31 H                     0.107728
     32 H                     0.104484
     33 H                     0.131315
     34 H                     0.137361
     35 H                     0.129863
     36 H                     0.117337
     37 H                     0.140827
     38 H                     0.122661
     39 C                    -0.184298
     40 H                     0.100773
     41 H                     0.083978
     42 H                     0.098473
     43 C                    -0.177375
     44 H                     0.091482
     45 C                    -0.178678
     46 H                     0.105036
     47 H                     0.071090
     48 H                     0.127478
     49 C                    -0.180339
     50 H                     0.091670
     51 C                    -0.317099
     52 H                     0.089660
     53 H                     0.091284
     54 H                     0.103983
     55 H                     0.103563
     56 C                     0.248641
     57 C                    -0.106692
     58 N                    -0.475110
     59 C                    -0.087860
     60 C                     0.097380
     61 C                     0.022002
     62 C                     0.043437
     63 C                     0.045189
     64 C                     0.260753
     65 N                    -0.504910
     66 N                    -0.557038
     67 C                     0.212789
     68 C                     0.289383
     69 S                     0.589686
     70 N                    -0.534126
     71 C                    -0.225219
     72 S                     0.311378
     73 C                    -0.104112
     74 C                    -0.224912
     75 S                     0.263047
     76 C                     0.150646
     77 C                     0.036886
     78 C                    -0.311454
     79 C                    -0.043792
     80 N                    -0.397782
     81 S                     0.252658
     82 C                     0.122937
     83 C                    -0.319706
     84 C                    -0.220802
     85 H                     0.087917
     86 H                     0.102446
     87 H                     0.110343
     88 H                     0.108192
     89 H                     0.126005
     90 H                     0.120369
     91 H                     0.108383
     92 H                     0.133508
     93 H                     0.102991
     94 C                    -0.175981
     95 H                     0.121827
     96 H                     0.091728
     97 H                     0.115467
     98 C                    -0.185618
     99 H                     0.088876
    100 C                    -0.167757
    101 H                     0.098292
    102 H                     0.090353
    103 H                     0.089963
    104 C                    -0.184377
    105 H                     0.088241
    106 C                    -0.318207
    107 H                     0.092920
    108 H                     0.104808
    109 H                     0.104458
    110 H                     0.100650
  ----------------------------------------
  Sum of atomic charges =     0.000000

                    Cartesian Multipole Moments
 -----------------------------------------------------------------
    Charge (ESU x 10^10)
                 0.0000
    Dipole Moment (Debye)
         X       1.6394      Y       2.5368      Z      -1.4669
       Tot       3.3578
    Quadrupole Moments (Debye-Ang)
        XX    -400.2103     XY      11.8267     YY    -422.9897
        XZ       8.0708     YZ       3.5919     ZZ    -440.8052

 Total job time:  104.88s(wall), 1121.53s(cpu)
        *  Thank you very much for using Q-Chem.  Have a nice day.  *
