 Q-Chem 4.4, Q-Chem, Inc., Pleasanton, CA (2016)
 Q-Chem 4.4.2 for Intel X86 Linux

User input:
--------------------------------------------------------------
$comment
SP
$end

$rem
MEM_STATIC 5000
MEM_TOTAL 20000
JOBTYPE SP
EXCHANGE B3LYP
BASIS 6-31g(d,p)
$end

$molecule
0 1
C         -12.570000      0.772000     -1.086000
C         -11.297000      1.234000     -1.531000
N         -12.625000     -0.314000     -0.315000
C         -10.154000      0.471000     -1.289000
C         -11.514000     -1.014000      0.023000
C         -10.230000     -0.740000     -0.516000
C          -9.074000     -1.615000     -0.053000
C          -9.029000     -2.250000      1.209000
C          -7.898000     -1.773000     -0.794000
N          -8.063000     -3.128000      1.633000
N          -7.754000     -1.276000     -2.040000
C          -6.799000     -2.496000     -0.321000
C          -6.877000     -3.201000      0.934000
S          -6.099000     -1.470000     -2.414000
N          -5.778000     -2.541000     -1.221000
C          -5.788000     -4.038000      1.442000
S          -4.100000     -3.980000      0.840000
C          -5.903000     -5.171000      2.307000
C          -3.616000     -5.318000      1.940000
S          -7.374000     -5.892000      2.975000
C          -4.718000     -5.820000      2.579000
C          -2.284000     -5.941000      1.936000
C          -6.318000     -7.053000      3.777000
C          -4.978000     -6.934000      3.491000
N          -1.313000     -5.316000      1.347000
S          -1.856000     -7.410000      2.681000
C          -0.107000     -5.892000      1.574000
C          -0.209000     -6.917000      2.456000
C         -13.850000      1.531000     -1.455000
H         -11.270000      2.138000     -2.132000
H          -9.203000      0.732000     -1.744000
H         -11.611000     -1.612000      0.928000
H          -9.890000     -2.126000      1.864000
H          -6.813000     -7.782000      4.406000
H          -4.358000     -7.687000      3.965000
H           0.756000     -5.551000      1.018000
H           0.586000     -7.497000      2.906000
H         -13.580000      2.578000     -1.641000
C         -15.018000      1.233000     -0.505000
H         -14.151000      1.262000     -2.475000
H         -14.782000      1.201000      0.565000
H         -15.272000      0.190000     -0.732000
C         -16.253000      2.110000     -0.724000
H         -15.858000      3.118000     -0.905000
C         -17.354000      2.171000      0.396000
H         -16.746000      2.018000     -1.700000
H         -16.937000      2.781000      1.208000
H         -17.500000      1.144000      0.753000
C         -18.729000      2.664000     -0.093000
H         -19.117000      2.053000     -0.918000
C         -18.812000      4.107000     -0.485000
H         -19.346000      2.511000      0.801000
H         -19.864000      4.416000     -0.515000
H         -18.431000      4.370000     -1.479000
H         -18.289000      4.659000      0.306000
C           0.448000      7.703000     12.315000
C           0.354000      8.049000     10.989000
N          -0.262000      6.636000     12.795000
C          -0.255000      7.216000     10.021000
C          -0.918000      5.841000     11.925000
C          -0.963000      6.025000     10.523000
C          -1.878000      5.117000      9.766000
C          -2.974000      4.537000     10.405000
C          -1.721000      4.747000      8.376000
N          -3.863000      3.685000      9.832000
N          -0.712000      5.116000      7.621000
C          -2.455000      3.715000      7.826000
C          -3.601000      3.240000      8.568000
S          -0.917000      4.311000      6.185000
N          -2.121000      3.372000      6.543000
C          -4.555000      2.222000      8.073000
S          -4.391000      1.272000      6.610000
C          -5.740000      1.891000      8.668000
C          -5.857000      0.338000      6.963000
S          -6.498000      2.651000      9.986000
C          -6.506000      0.901000      8.025000
C          -6.444000     -0.688000      6.244000
C          -7.861000      1.493000      9.781000
C          -7.750000      0.671000      8.648000
N          -7.723000     -0.571000      5.965000
S          -5.622000     -2.064000      5.502000
C          -8.124000     -1.696000      5.280000
C          -7.156000     -2.545000      4.845000
C           1.093000      8.566000     13.365000
H           0.937000      8.905000     10.662000
H          -0.409000      7.596000      9.015000
H          -1.443000      5.040000     12.443000
H          -3.186000      4.773000     11.446000
H          -8.590000      1.483000     10.581000
H          -8.444000     -0.089000      8.307000
H          -9.157000     -1.840000      4.991000
H          -7.173000     -3.443000      4.242000
H           2.156000      8.326000     13.488000
C           0.351000      8.782000     14.678000
H           1.152000      9.540000     12.864000
H           0.319000      7.878000     15.297000
H          -0.700000      8.982000     14.435000
C           0.768000      9.924000     15.655000
H           0.937000     10.840000     15.076000
C           2.170000      9.674000     16.439000
H           0.035000     10.032000     16.463000
H           2.956000      9.414000     15.720000
H           1.921000      8.821000     17.082000
C           2.569000     10.926000     17.321000
H           3.647000     10.855000     17.513000
C           1.937000     10.878000     18.731000
H           2.312000     11.832000     16.759000
H           2.345000     11.642000     19.405000
H           2.134000      9.899000     19.187000
H           0.847000     10.988000     18.783000
$end

--------------------------------------------------------------

             Standard Nuclear Orientation (Angstroms)
    I     Atom           X                Y                Z
 ----------------------------------------------------------------
    1      C      -7.9258222806     4.8286188391    -1.3610114977
    2      C      -7.3429595565     4.1915051961    -2.4951875206
    3      N      -7.9658440132     4.1680524299    -0.2038977263
    4      C      -6.9669457830     2.8495270642    -2.4252565865
    5      C      -7.5082595535     2.8972898673    -0.0841314048
    6      C      -7.0792453671     2.1191932044    -1.1908226042
    7      C      -6.5997011200     0.7027080740    -0.9080909459
    8      C      -6.0213405338     0.3016946549     0.3177072715
    9      C      -6.5835074336    -0.3013485238    -1.8820668763
   10      N      -5.6686704620    -0.9801443082     0.6587771958
   11      N      -7.1222705766    -0.1315335158    -3.1072844646
   12      C      -6.0501889314    -1.5721132989    -1.6475732485
   13      C      -5.5755127021    -1.9314138825    -0.3346682374
   14      S      -6.6220192334    -1.4909699180    -4.0118386433
   15      N      -6.1675910165    -2.3941540129    -2.7268933191
   16      C      -5.0803965500    -3.2707876223    -0.0098729461
   17      S      -4.5943841362    -4.4942303542    -1.2272848794
   18      C      -5.1099844066    -3.9147773861     1.2666617157
   19      C      -4.2541115686    -5.7031426796     0.0600556232
   20      S      -5.7710020422    -3.2982445352     2.7874670711
   21      C      -4.6341846411    -5.2081751651     1.2787765179
   22      C      -3.8803095179    -7.1002577825    -0.2058586790
   23      C      -5.2521042158    -4.8193056666     3.5109165028
   24      C      -4.6967375871    -5.7309659590     2.6437369257
   25      N      -3.4716334478    -7.4132065536    -1.3955787874
   26      S      -3.8807019593    -8.3757656705     0.9207510465
   27      C      -2.9794587443    -8.6744820885    -1.4640556898
   28      C      -2.9362905601    -9.2534786657    -0.2385547834
   29      C      -8.4627243713     6.2613671325    -1.4590445169
   30      H      -7.2911172679     4.7571685591    -3.4206513702
   31      H      -6.6586664011     2.3099424946    -3.3159637858
   32      H      -7.2320756732     2.6068602572     0.9284944421
   33      H      -5.9511123728     1.0482409479     1.1073012417
   34      H      -5.4389116995    -4.9226447401     4.5722981495
   35      H      -4.4257575650    -6.6724858810     3.1087047354
   36      H      -2.7464985063    -9.1004782881    -2.4307214880
   37      H      -2.5044372917   -10.2060525321     0.0389894181
   38      H      -7.9258304530     6.7683796884    -2.2704557496
   39      C      -8.5590908320     6.9594851093    -0.0956396630
   40      H      -9.4601123452     6.2454845436    -1.9154730139
   41      H      -7.7119248276     6.8202166159     0.5859276834
   42      H      -9.3717327685     6.4223649201     0.4093444807
   43      C      -8.9095337004     8.4474970080    -0.1686149021
   44      H      -8.3240599841     8.8369411907    -1.0114694304
   45      C      -8.6731373644     9.3501073346     1.0961907631
   46      H      -9.8869255300     8.6946579838    -0.6018650185
   47      H      -7.5884624375     9.5030844489     1.1697523394
   48      H      -9.0173612135     8.7749730599     1.9646517627
   49      C      -9.4759499833    10.6647505191     1.0957475705
   50      H     -10.5551186762    10.4892576588     1.0004208255
   51      C      -9.0655397400    11.6887893491     0.0829741967
   52      H      -9.2530299358    11.0566334581     2.0957817771
   53      H      -9.4756777452    12.6657606787     0.3665210851
   54      H      -9.4246304832    11.5390248094    -0.9422040418
   55      H      -7.9696723856    11.7237849705     0.1249747703
   56      C      11.5762301113     0.7367873354    -1.2169509161
   57      C      10.7830028702     0.9733103197    -2.3131604864
   58      N      11.0051390636     0.5523760921     0.0130232741
   59      C       9.3788712373     0.8004966019    -2.2946192826
   60      C       9.6636399225     0.4447897627     0.1028355012
   61      C       8.7617627579     0.5312353276    -0.9837323726
   62      C       7.3076873927     0.5414720709    -0.6368922923
   63      C       6.8915380371     0.9788959948     0.6206517525
   64      C       6.2403948527     0.1034840461    -1.5102204805
   65      N       5.6064894896     1.0177482504     1.0584813230
   66      N       6.4251738745    -0.4201922162    -2.7001309332
   67      C       4.9610931708    -0.0923123304    -1.0292516816
   68      C       4.6431428313     0.4584513852     0.2688515158
   69      S       4.9201113742    -0.8927894290    -3.2135359825
   70      N       4.0730974305    -0.6356160236    -1.9189587470
   71      C       3.2950803160     0.4356013212     0.8801373160
   72      S       1.8894969859    -0.4065572163     0.2597588027
   73      C       2.9274667361     1.1054518038     2.0132620165
   74      C       0.9059038519     0.0450123253     1.6650169625
   75      S       3.8296881165     2.2442655438     2.8955249287
   76      C       1.5882870140     0.9568765475     2.4192522443
   77      C      -0.4113350679    -0.2626523353     1.9555855172
   78      C       2.4004252779     2.4393930667     3.9725072815
   79      C       1.2602598213     1.7400682287     3.5451181117
   80      N      -1.2078865150     0.7363958511     2.2634483331
   81      S      -1.1909331167    -1.8385368907     1.7869475910
   82      C      -2.4550232162     0.2272265820     2.5481371173
   83      C      -2.6816855190    -1.0803064206     2.2548255978
   84      C      13.0708601867     0.9079711390    -1.2085222240
   85      H      11.2883239475     1.1144457170    -3.2640997108
   86      H       8.7932926615     1.1203812643    -3.1518960957
   87      H       9.3482567038     0.3085887640     1.1360502482
   88      H       7.6213317663     1.3478210853     1.3387160884
   89      H       2.5720976002     3.0056816100     4.8788112589
   90      H       0.2830517562     1.7111720153     4.0138892780
   91      H      -3.2622651618     0.8683025238     2.8778765266
   92      H      -3.5592164309    -1.7108517022     2.3063440063
   93      H      13.5857646704    -0.0252361784    -1.4667768956
   94      C      13.7046300461     1.6640652524    -0.0475543273
   95      H      13.2436903661     1.5031099197    -2.1135623119
   96      H      13.6626660722     1.1029735974     0.8930923542
   97      H      13.0927331667     2.5551030084     0.1402858341
   98      C      15.1708255967     2.1880995042    -0.1383326867
   99      H      15.3174411852     2.6594173414    -1.1177311580
  100      C      16.3139972431     1.0344847665    -0.0669770714
  101      H      15.4052437255     2.8381451030     0.7127289211
  102      H      16.0923006898     0.2467096137    -0.7967838587
  103      H      16.2019415731     0.6677804987     0.9606563783
  104      C      17.7603357640     1.6417665909    -0.2766021388
  105      H      18.4156888773     0.8163330923    -0.5818247399
  106      C      18.3856130474     2.1425963667     1.0455271493
  107      H      17.6931772419     2.4180938007    -1.0483111489
  108      H      19.4474113327     2.4000389401     0.9418752184
  109      H      18.3116265371     1.3548799586     1.8065888135
  110      H      17.9126312481     3.0158694443     1.5109155349
 ----------------------------------------------------------------

   10   -5663.5063501145      3.96E-06 Convergence criterion met
 Total energy in the final basis set = -5663.5063501145

                    Orbital Energies (a.u.)
 --------------------------------------------------------------

 Alpha MOs
 -- Occupied --
-88.989 -88.987 -88.932 -88.932 -88.921 -88.917 -88.914 -88.901
-14.390 -14.389 -14.381 -14.375 -14.361 -14.347 -14.340 -14.336
-14.327 -14.324 -10.275 -10.270 -10.264 -10.261 -10.255 -10.254
-10.254 -10.253 -10.251 -10.251 -10.247 -10.243 -10.236 -10.235
-10.234 -10.232 -10.231 -10.231 -10.230 -10.229 -10.226 -10.225
-10.222 -10.222 -10.222 -10.222 -10.221 -10.220 -10.218 -10.217
-10.217 -10.217 -10.215 -10.213 -10.200 -10.197 -10.197 -10.194
-10.192 -10.185 -10.181 -10.179 -10.177 -10.177 -10.176 -10.175
-10.175 -10.172 -10.171 -10.168  -8.044  -8.043  -7.995  -7.989
 -7.981  -7.976  -7.976  -7.961  -6.009  -6.008  -6.004  -6.003
 -6.001  -6.001  -5.959  -5.955  -5.954  -5.952  -5.950  -5.946
 -5.945  -5.942  -5.941  -5.940  -5.937  -5.937  -5.936  -5.933
 -5.933  -5.925  -5.922  -5.917  -1.049  -1.027  -0.988  -0.967
 -0.950  -0.949  -0.935  -0.929  -0.917  -0.914  -0.907  -0.898
 -0.849  -0.837  -0.826  -0.823  -0.816  -0.809  -0.808  -0.802
 -0.801  -0.796  -0.794  -0.790  -0.784  -0.780  -0.772  -0.764
 -0.757  -0.745  -0.743  -0.735  -0.733  -0.714  -0.713  -0.705
 -0.699  -0.687  -0.678  -0.670  -0.656  -0.653  -0.647  -0.645
 -0.638  -0.633  -0.623  -0.619  -0.613  -0.609  -0.609  -0.597
 -0.591  -0.585  -0.582  -0.581  -0.580  -0.577  -0.560  -0.555
 -0.548  -0.545  -0.542  -0.537  -0.527  -0.524  -0.521  -0.508
 -0.508  -0.503  -0.502  -0.495  -0.485  -0.480  -0.475  -0.474
 -0.469  -0.467  -0.466  -0.462  -0.462  -0.456  -0.453  -0.448
 -0.447  -0.444  -0.441  -0.439  -0.439  -0.438  -0.435  -0.434
 -0.428  -0.425  -0.421  -0.420  -0.420  -0.414  -0.413  -0.411
 -0.409  -0.407  -0.405  -0.404  -0.402  -0.402  -0.400  -0.395
 -0.394  -0.394  -0.391  -0.391  -0.390  -0.386  -0.384  -0.383
 -0.378  -0.376  -0.367  -0.365  -0.361  -0.360  -0.356  -0.355
 -0.354  -0.353  -0.351  -0.348  -0.347  -0.347  -0.347  -0.343
 -0.341  -0.339  -0.335  -0.329  -0.328  -0.326  -0.322  -0.319
 -0.310  -0.307  -0.307  -0.302  -0.301  -0.300  -0.299  -0.298
 -0.294  -0.292  -0.288  -0.287  -0.285  -0.283  -0.279  -0.278
 -0.277  -0.270  -0.270  -0.269  -0.261  -0.254  -0.247  -0.245
 -0.244  -0.238  -0.234  -0.226  -0.201  -0.190

          Ground-State Mulliken Net Atomic Charges

     Atom                 Charge (a.u.)
  ----------------------------------------
      1 C                     0.300976
      2 C                    -0.128877
      3 N                    -0.500220
      4 C                    -0.054154
      5 C                     0.067219
      6 C                     0.031722
      7 C                     0.062877
      8 C                     0.054512
      9 C                     0.234190
     10 N                    -0.537645
     11 N                    -0.579665
     12 C                     0.213470
     13 C                     0.303205
     14 S                     0.590771
     15 N                    -0.555923
     16 C                    -0.222754
     17 S                     0.370855
     18 C                    -0.147053
     19 C                    -0.234038
     20 S                     0.279627
     21 C                     0.159011
     22 C                     0.072801
     23 C                    -0.292291
     24 C                    -0.087610
     25 N                    -0.426543
     26 S                     0.274557
     27 C                     0.131445
     28 C                    -0.317759
     29 C                    -0.244327
     30 H                     0.088240
     31 H                     0.115423
     32 H                     0.099882
     33 H                     0.110261
     34 H                     0.134059
     35 H                     0.126154
     36 H                     0.121971
     37 H                     0.131821
     38 H                     0.101849
     39 C                    -0.163147
     40 H                     0.123443
     41 H                     0.106817
     42 H                     0.113807
     43 C                    -0.186777
     44 H                     0.084788
     45 C                    -0.180399
     46 H                     0.082388
     47 H                     0.093181
     48 H                     0.093318
     49 C                    -0.177100
     50 H                     0.093624
     51 C                    -0.308596
     52 H                     0.093292
     53 H                     0.099465
     54 H                     0.102917
     55 H                     0.100219
     56 C                     0.273162
     57 C                    -0.118250
     58 N                    -0.483316
     59 C                    -0.066651
     60 C                     0.064824
     61 C                     0.036849
     62 C                     0.042529
     63 C                     0.060185
     64 C                     0.231165
     65 N                    -0.537252
     66 N                    -0.555861
     67 C                     0.169156
     68 C                     0.303359
     69 S                     0.601397
     70 N                    -0.514199
     71 C                    -0.218157
     72 S                     0.315461
     73 C                    -0.109109
     74 C                    -0.223982
     75 S                     0.287055
     76 C                     0.174134
     77 C                     0.008304
     78 C                    -0.327860
     79 C                    -0.035703
     80 N                    -0.412757
     81 S                     0.255147
     82 C                     0.103562
     83 C                    -0.285369
     84 C                    -0.233523
     85 H                     0.087036
     86 H                     0.115536
     87 H                     0.103734
     88 H                     0.114183
     89 H                     0.124567
     90 H                     0.117779
     91 H                     0.103415
     92 H                     0.162104
     93 H                     0.116902
     94 C                    -0.162892
     95 H                     0.095991
     96 H                     0.110322
     97 H                     0.095570
     98 C                    -0.191074
     99 H                     0.085286
    100 C                    -0.185612
    101 H                     0.098974
    102 H                     0.089003
    103 H                     0.093134
    104 C                    -0.171258
    105 H                     0.095250
    106 C                    -0.323205
    107 H                     0.095830
    108 H                     0.099555
    109 H                     0.104009
    110 H                     0.102281
  ----------------------------------------
  Sum of atomic charges =     0.000000

                    Cartesian Multipole Moments
 -----------------------------------------------------------------
    Charge (ESU x 10^10)
                 0.0000
    Dipole Moment (Debye)
         X      -2.1301      Y      -3.1613      Z      -1.7297
       Tot       4.1861
    Quadrupole Moments (Debye-Ang)
        XX    -454.3603     XY       9.2295     YY    -399.8313
        XZ     -15.5821     YZ     -14.8035     ZZ    -416.1581

 Total job time:  92.41s(wall), 994.68s(cpu)
        *  Thank you very much for using Q-Chem.  Have a nice day.  *
