 Q-Chem 4.4, Q-Chem, Inc., Pleasanton, CA (2016)
 Q-Chem 4.4.2 for Intel X86 Linux

User input:
--------------------------------------------------------------
$comment
SP
$end

$rem
MEM_STATIC 5000
MEM_TOTAL 20000
JOBTYPE SP
EXCHANGE B3LYP
BASIS 6-31g(d,p)
$end

$molecule
0 1
C         -12.661000     21.943000    -13.238000
C         -12.811000     20.987000    -14.187000
N         -11.678000     21.933000    -12.368000
C         -11.905000     19.897000    -14.191000
C         -10.851000     20.883000    -12.392000
C         -10.831000     19.854000    -13.267000
C          -9.748000     18.824000    -13.217000
C          -8.510000     19.041000    -12.603000
C          -9.915000     17.429000    -13.557000
N          -7.539000     18.145000    -12.479000
N         -11.028000     16.863000    -13.983000
C          -8.869000     16.497000    -13.422000
C          -7.680000     16.905000    -12.894000
S         -10.722000     15.322000    -14.333000
N          -9.130000     15.272000    -13.932000
C          -6.508000     16.044000    -12.838000
S          -6.225000     14.465000    -13.581000
C          -5.313000     16.369000    -12.204000
C          -4.562000     14.329000    -13.099000
S          -4.842000     17.764000    -11.258000
C          -4.304000     15.432000    -12.343000
C          -3.748000     13.170000    -13.167000
C          -3.254000     17.069000    -11.050000
C          -3.160000     15.778000    -11.564000
N          -4.086000     12.258000    -14.063000
S          -2.288000     12.763000    -12.215000
C          -3.185000     11.209000    -14.056000
C          -2.197000     11.292000    -13.118000
C         -13.451000     23.238000    -13.377000
H         -13.602000     21.057000    -14.928000
H         -12.022000     19.219000    -15.032000
H         -10.048000     20.885000    -11.656000
H          -8.216000     20.026000    -12.245000
H          -2.505000     17.532000    -10.422000
H          -2.256000     15.183000    -11.501000
H          -3.314000     10.256000    -14.552000
H          -1.304000     10.690000    -13.012000
H         -12.707000     23.975000    -13.050000
C         -14.760000     23.367000    -12.625000
H         -13.662000     23.623000    -14.382000
H         -15.060000     24.421000    -12.675000
H         -14.624000     23.176000    -11.554000
C         -15.937000     22.552000    -13.177000
H         -16.036000     22.799000    -14.242000
C         -17.292000     22.930000    -12.632000
H         -15.645000     21.514000    -12.979000
H         -17.533000     23.965000    -12.905000
H         -17.333000     22.829000    -11.540000
C         -18.373000     21.969000    -13.217000
H         -18.645000     22.217000    -14.250000
C         -19.693000     21.872000    -12.424000
H         -17.923000     20.971000    -13.281000
H         -19.512000     21.319000    -11.494000
H         -20.384000     21.276000    -13.032000
H         -20.037000     22.900000    -12.257000
C           0.854000     13.709000    -14.705000
C           1.173000     12.737000    -13.773000
N           1.693000     14.681000    -15.094000
C           2.420000     12.855000    -13.135000
C           2.891000     14.771000    -14.556000
C           3.294000     13.847000    -13.557000
C           4.785000     13.877000    -13.026000
C           5.848000     13.795000    -13.942000
C           5.110000     13.950000    -11.638000
N           7.169000     13.897000    -13.628000
N           4.290000     14.041000    -10.590000
C           6.473000     14.087000    -11.313000
C           7.459000     13.998000    -12.299000
S           5.310000     13.999000     -9.293000
N           6.736000     14.204000    -10.007000
C           8.849000     14.280000    -11.941000
S           9.492000     15.389000    -10.655000
C           9.938000     13.800000    -12.555000
C          11.224000     15.033000    -10.913000
S           9.951000     12.494000    -13.750000
C          11.190000     14.093000    -11.915000
C          12.321000     15.740000    -10.276000
C          11.740000     12.655000    -13.723000
C          12.229000     13.453000    -12.664000
N          13.580000     15.470000    -10.621000
S          12.144000     16.918000     -8.978000
C          14.424000     16.273000     -9.855000
C          13.886000     17.196000     -9.011000
C          -0.469000     13.601000    -15.498000
H           0.492000     11.913000    -13.575000
H           2.835000     12.151000    -12.420000
H           3.500000     15.624000    -14.854000
H           5.712000     14.016000    -14.999000
H          12.346000     12.203000    -14.498000
H          13.281000     13.632000    -12.473000
H          15.486000     16.111000     -9.985000
H          14.305000     17.952000     -8.360000
H          -0.282000     13.573000    -16.578000
C          -1.368000     14.798000    -15.234000
H          -0.974000     12.673000    -15.201000
H          -0.862000     15.745000    -15.461000
H          -1.762000     14.885000    -14.214000
C          -2.540000     14.883000    -16.223000
H          -2.302000     14.725000    -17.282000
C          -3.458000     16.176000    -16.059000
H          -3.208000     14.029000    -16.055000
H          -3.405000     16.732000    -15.114000
H          -4.503000     15.844000    -16.099000
C          -3.063000     17.339000    -17.006000
H          -3.488000     18.262000    -16.594000
C          -3.708000     17.084000    -18.417000
H          -1.975000     17.467000    -17.059000
H          -3.218000     17.774000    -19.115000
H          -4.784000     17.245000    -18.275000
H          -3.541000     16.097000    -18.864000
$end

--------------------------------------------------------------

             Standard Nuclear Orientation (Angstroms)
    I     Atom           X                Y                Z
 ----------------------------------------------------------------
    1      C      12.3042905548    -2.9982302526    -1.0138120384
    2      C      12.3079906353    -1.6914573965    -1.3734896884
    3      N      11.2780145218    -3.5719500172    -0.4299523500
    4      C      11.1801857133    -0.9002441591    -1.0403385652
    5      C      10.2376125056    -2.7925690647    -0.1182891092
    6      C      10.0537167728    -1.4866253433    -0.4107944185
    7      C       8.7635437743    -0.8018290038    -0.0901753183
    8      C       7.5624582940    -1.4871276122     0.1207476211
    9      C       8.6341614136     0.5882835371     0.2844729545
   10      N       6.4055929639    -0.9352651464     0.4644676041
   11      N       9.6190034012     1.4615232916     0.3746926350
   12      C       7.3954156391     1.1535701058     0.6407383071
   13      C       6.2924798031     0.3540588234     0.6980379656
   14      S       8.9981688520     2.9053400800     0.7222189562
   15      N       7.4098294648     2.4956488789     0.8064573719
   16      C       4.9541089159     0.8764456227     0.9302370185
   17      S       4.3786674554     2.5478233807     0.9574861589
   18      C       3.8178113920     0.0956483445     1.1167565820
   19      C       2.6952408185     2.1610717651     1.1388337418
   20      S       3.6032822844    -1.6384890166     1.2143622929
   21      C       2.6359657648     0.8045284229     1.2436460919
   22      C       1.6460912104     3.0575453867     1.4645961485
   23      C       1.8869838221    -1.3998661769     1.4274625711
   24      C       1.5422266720    -0.0565993373     1.5558748181
   25      N       1.8379556819     4.3311643287     1.1647848493
   26      S       0.0596703326     2.7076148285     2.2158420490
   27      C       0.7234845869     5.0826338537     1.4895905319
   28      C      -0.2918798708     4.3951748646     2.0890170550
   29      C      13.3779759095    -3.9146313759    -1.5863980497
   30      H      13.1512840014    -1.2630724067    -1.9073479086
   31      H      11.2066885882     0.1099672554    -1.4396185368
   32      H       9.3995397261    -3.2822776073     0.3760069150
   33      H       7.4734538338    -2.5545369552    -0.0730060900
   34      H       1.2154086703    -2.2240817846     1.6259807000
   35      H       0.5240979306     0.2773581057     1.7204843325
   36      H       0.6708815682     6.1630250763     1.5188091626
   37      H      -1.3044125934     4.7159995626     2.2962319162
   38      H      12.7982143440    -4.8268268503    -1.7745733503
   39      C      14.6166223519    -4.1795386204    -0.7550105693
   40      H      13.7519196765    -3.7220544136    -2.5992411633
   41      H      15.1526447885    -5.0115923399    -1.2280671783
   42      H      14.3544522173    -4.5586546116     0.2397536669
   43      C      15.6168205515    -3.0208629395    -0.6485576310
   44      H      15.8554106918    -2.6987296835    -1.6704871346
   45      C      16.9737445858    -3.3913906741    -0.1032133699
   46      H      15.0802541588    -2.2732619983    -0.0526538310
   47      H      17.4662091242    -4.1081737724    -0.7721944372
   48      H      16.9021686641    -3.8293632184     0.9004812738
   49      C      17.8501006593    -2.1068392638     0.0242021185
   50      H      18.2541708566    -1.7731510988    -0.9391028614
   51      C      19.0444438602    -2.1958846244     0.9969678879
   52      H      17.1905694064    -1.2916597818     0.3452954674
   53      H      18.6672642148    -2.2028817344     2.0270924218
   54      H      19.6277307581    -1.2765951722     0.8664140753
   55      H      19.5996702510    -3.1040813682     0.7325603815
   56      C      -2.5710693391     2.5987246153    -0.9518908471
   57      C      -3.1780716218     2.9281632086     0.2473536826
   58      N      -3.1314044851     1.8177774195    -1.8879314454
   59      C      -4.4124587286     2.3147275482     0.5229660213
   60      C      -4.3165712616     1.2849623681    -1.6776082827
   61      C      -4.9995104123     1.5270043953    -0.4572821896
   62      C      -6.4820841145     1.0017144602    -0.2784311292
   63      C      -7.4580711558     1.3458561318    -1.2296223850
   64      C      -6.8928901659     0.2111333710     0.8367898935
   65      N      -8.7417191082     0.8918311717    -1.2418808467
   66      N      -6.1612645518    -0.2442662879     1.8547879836
   67      C      -8.2101734279    -0.2850863990     0.8104508082
   68      C      -9.1074001120     0.1115788582    -0.1845134882
   69      S      -7.2652653262    -1.0042562090     2.8181002954
   70      N      -8.5441435809    -1.0635173708     1.8453436330
   71      C     -10.4203997380    -0.5295536648    -0.2535719426
   72      S     -10.8946548415    -2.2113969193     0.2399980765
   73      C     -11.5369995868     0.0051441879    -0.7640814762
   74      C     -12.6354988029    -2.0603790632    -0.1338734379
   75      S     -11.7515580167     1.7057347932    -1.2065589029
   76      C     -12.7363961437    -0.7603188512    -0.5679508181
   77      C     -13.5896420864    -3.1547487282    -0.1023673931
   78      C     -13.4525570815     1.2649965628    -1.5800866710
   79      C     -13.8301501948    -0.0144811899    -1.1134324938
   80      N     -14.8449087812    -2.9587265872    -0.5059598178
   81      S     -13.2535618417    -4.7690331658     0.5180782721
   82      C     -15.5420835383    -4.1573587694    -0.3606007800
   83      C     -14.8773686972    -5.2734256070     0.0471466834
   84      C      -1.2481355777     3.2912839640    -1.3532009658
   85      H      -2.7217526081     3.6494206337     0.9207790195
   86      H      -5.0337949219     2.5041299586     1.3931005291
   87      H      -4.6883266698     0.5991087537    -2.4383294775
   88      H      -7.1901749650     1.6924039874    -2.2259768474
   89      H     -14.0811548538     1.9321169134    -2.1562639688
   90      H     -14.8252813475    -0.4312565206    -1.2194434027
   91      H     -16.5989189844    -4.1268035275    -0.5911505947
   92      H     -15.1636730391    -6.3070075176     0.1907999395
   93      H      -1.3486611629     3.8105543774    -2.3136205847
   94      C      -0.1236783011     2.2805698910    -1.5105505631
   95      H      -0.9943403179     4.0251927945    -0.5777115754
   96      H      -0.3797585572     1.4961281231    -2.2340476365
   97      H       0.1960072390     1.7733213357    -0.5920163729
   98      C       1.1127210950     2.8783699509    -2.1982144504
   99      H       0.9313033255     3.4907842852    -3.0899124240
  100      C       2.2856388423     1.8369642357    -2.4831830349
  101      H       1.5519952107     3.6378776001    -1.5394653464
  102      H       2.2849323054     0.8912459004    -1.9258803064
  103      H       3.2267996407     2.3104950677    -2.1768598350
  104      C       2.2448184674     1.2353503683    -3.9120978159
  105      H       2.8348230867     0.3111970345    -3.9005581135
  106      C       2.9263322212     2.2451383686    -4.9059983129
  107      H       1.2228257064     0.9752570774    -4.2134601836
  108      H       2.6650976533     1.9130980735    -5.9183765737
  109      H       3.9955513977     2.2118675547    -4.6620220731
  110      H       2.5748286814     3.2830002079    -4.8720120794
 ----------------------------------------------------------------

    9   -5663.5038277521      7.72E-06 Convergence criterion met
 Total energy in the final basis set = -5663.5038277521

                    Orbital Energies (a.u.)
 --------------------------------------------------------------

 Alpha MOs
 -- Occupied --
-88.993 -88.992 -88.931 -88.925 -88.924 -88.917 -88.912 -88.907
-14.394 -14.388 -14.387 -14.381 -14.358 -14.348 -14.348 -14.347
-14.329 -14.328 -10.277 -10.274 -10.266 -10.262 -10.259 -10.258
-10.257 -10.251 -10.245 -10.243 -10.242 -10.241 -10.241 -10.237
-10.235 -10.233 -10.233 -10.233 -10.231 -10.231 -10.230 -10.229
-10.228 -10.228 -10.227 -10.226 -10.223 -10.222 -10.220 -10.217
-10.215 -10.214 -10.212 -10.205 -10.203 -10.202 -10.197 -10.195
-10.180 -10.180 -10.178 -10.177 -10.176 -10.176 -10.173 -10.170
-10.168 -10.165 -10.165 -10.163  -8.049  -8.048  -7.992  -7.986
 -7.982  -7.976  -7.972  -7.967  -6.014  -6.013  -6.009  -6.007
 -6.007  -6.005  -5.956  -5.952  -5.950  -5.949  -5.947  -5.946
 -5.943  -5.942  -5.941  -5.939  -5.937  -5.936  -5.932  -5.932
 -5.931  -5.928  -5.928  -5.923  -1.052  -1.048  -0.976  -0.972
 -0.964  -0.959  -0.956  -0.948  -0.921  -0.920  -0.910  -0.906
 -0.850  -0.839  -0.832  -0.829  -0.817  -0.814  -0.812  -0.811
 -0.805  -0.802  -0.801  -0.797  -0.790  -0.778  -0.775  -0.764
 -0.756  -0.747  -0.745  -0.738  -0.725  -0.717  -0.713  -0.703
 -0.701  -0.686  -0.684  -0.678  -0.659  -0.654  -0.650  -0.649
 -0.642  -0.638  -0.633  -0.633  -0.615  -0.611  -0.603  -0.597
 -0.595  -0.590  -0.583  -0.580  -0.577  -0.575  -0.569  -0.553
 -0.550  -0.550  -0.549  -0.541  -0.530  -0.524  -0.521  -0.516
 -0.515  -0.509  -0.504  -0.501  -0.497  -0.494  -0.485  -0.480
 -0.480  -0.480  -0.479  -0.470  -0.465  -0.457  -0.456  -0.448
 -0.447  -0.441  -0.439  -0.436  -0.435  -0.434  -0.433  -0.431
 -0.428  -0.427  -0.425  -0.423  -0.422  -0.419  -0.416  -0.415
 -0.413  -0.408  -0.407  -0.405  -0.403  -0.403  -0.400  -0.399
 -0.395  -0.394  -0.393  -0.392  -0.391  -0.390  -0.387  -0.380
 -0.374  -0.373  -0.373  -0.368  -0.362  -0.361  -0.358  -0.357
 -0.357  -0.354  -0.354  -0.349  -0.348  -0.344  -0.339  -0.336
 -0.333  -0.331  -0.331  -0.330  -0.329  -0.324  -0.322  -0.317
 -0.315  -0.312  -0.307  -0.307  -0.304  -0.302  -0.300  -0.300
 -0.298  -0.292  -0.290  -0.290  -0.288  -0.286  -0.285  -0.281
 -0.279  -0.276  -0.273  -0.266  -0.258  -0.255  -0.255  -0.253
 -0.249  -0.243  -0.238  -0.234  -0.200  -0.197

          Ground-State Mulliken Net Atomic Charges

     Atom                 Charge (a.u.)
  ----------------------------------------
      1 C                     0.282281
      2 C                    -0.105694
      3 N                    -0.482177
      4 C                    -0.087527
      5 C                     0.051037
      6 C                     0.093175
      7 C                     0.059521
      8 C                     0.038865
      9 C                     0.230039
     10 N                    -0.535740
     11 N                    -0.548756
     12 C                     0.204421
     13 C                     0.332507
     14 S                     0.604857
     15 N                    -0.567576
     16 C                    -0.232755
     17 S                     0.355398
     18 C                    -0.115617
     19 C                    -0.209345
     20 S                     0.290679
     21 C                     0.148077
     22 C                     0.061848
     23 C                    -0.306095
     24 C                    -0.094545
     25 N                    -0.433868
     26 S                     0.276390
     27 C                     0.116991
     28 C                    -0.307917
     29 C                    -0.239960
     30 H                     0.097780
     31 H                     0.107015
     32 H                     0.090477
     33 H                     0.116396
     34 H                     0.130651
     35 H                     0.112534
     36 H                     0.120080
     37 H                     0.135731
     38 H                     0.116572
     39 C                    -0.184419
     40 H                     0.098638
     41 H                     0.086928
     42 H                     0.100928
     43 C                    -0.166630
     44 H                     0.086693
     45 C                    -0.171766
     46 H                     0.096501
     47 H                     0.092244
     48 H                     0.091777
     49 C                    -0.183234
     50 H                     0.089976
     51 C                    -0.315902
     52 H                     0.091275
     53 H                     0.104261
     54 H                     0.100933
     55 H                     0.104384
     56 C                     0.277019
     57 C                    -0.114385
     58 N                    -0.468283
     59 C                    -0.051541
     60 C                     0.080137
     61 C                     0.020743
     62 C                    -0.016359
     63 C                     0.046235
     64 C                     0.259947
     65 N                    -0.466824
     66 N                    -0.556829
     67 C                     0.188886
     68 C                     0.242658
     69 S                     0.603100
     70 N                    -0.521894
     71 C                    -0.183645
     72 S                     0.285881
     73 C                    -0.109326
     74 C                    -0.216817
     75 S                     0.263896
     76 C                     0.133601
     77 C                     0.069463
     78 C                    -0.302744
     79 C                    -0.060252
     80 N                    -0.437716
     81 S                     0.262944
     82 C                     0.121967
     83 C                    -0.302666
     84 C                    -0.218318
     85 H                     0.074265
     86 H                     0.101609
     87 H                     0.109255
     88 H                     0.120305
     89 H                     0.127983
     90 H                     0.128418
     91 H                     0.110124
     92 H                     0.145433
     93 H                     0.113532
     94 C                    -0.166966
     95 H                     0.096419
     96 H                     0.113774
     97 H                     0.092082
     98 C                    -0.197921
     99 H                     0.086410
    100 C                    -0.189203
    101 H                     0.100372
    102 H                     0.090678
    103 H                     0.096832
    104 C                    -0.184730
    105 H                     0.090821
    106 C                    -0.312167
    107 H                     0.097874
    108 H                     0.092699
    109 H                     0.102988
    110 H                     0.101897
  ----------------------------------------
  Sum of atomic charges =     0.000000

                    Cartesian Multipole Moments
 -----------------------------------------------------------------
    Charge (ESU x 10^10)
                 0.0000
    Dipole Moment (Debye)
         X      -0.3572      Y       0.6689      Z       2.0709
       Tot       2.2054
    Quadrupole Moments (Debye-Ang)
        XX    -395.5882     XY      28.3939     YY    -426.0834
        XZ     -24.7941     YZ       4.9426     ZZ    -448.1634

 Total job time:  90.58s(wall), 990.58s(cpu)
        *  Thank you very much for using Q-Chem.  Have a nice day.  *
