 Q-Chem 4.4, Q-Chem, Inc., Pleasanton, CA (2016)
 Q-Chem 4.4.2 for Intel X86 Linux

User input:
--------------------------------------------------------------
$comment
SP
$end

$rem
MEM_STATIC 5000
MEM_TOTAL 20000
JOBTYPE SP
EXCHANGE B3LYP
BASIS 6-31g(d,p)
$end

$molecule
0 1
C           1.421000      6.590000      3.260000
C           0.215000      5.903000      2.952000
N           2.590000      5.956000      3.320000
C           0.218000      4.522000      2.806000
C           2.597000      4.592000      3.132000
C           1.424000      3.846000      2.875000
C           1.588000      2.417000      2.725000
C           1.895000      1.865000      1.446000
C           1.486000      1.494000      3.801000
N           2.231000      0.592000      1.235000
N           1.079000      1.865000      5.056000
C           1.963000      0.214000      3.610000
C           2.436000     -0.182000      2.333000
S           1.359000      0.519000      5.905000
N           1.932000     -0.518000      4.749000
C           3.288000     -1.368000      2.038000
S           3.372000     -2.348000      0.635000
C           4.361000     -1.607000      2.897000
C           4.929000     -3.038000      1.148000
S           4.864000     -0.832000      4.367000
C           5.314000     -2.457000      2.319000
C           5.618000     -4.090000      0.419000
C           6.395000     -1.852000      4.275000
C           6.465000     -2.577000      3.085000
N           4.845000     -4.622000     -0.498000
S           7.275000     -4.832000      0.633000
C           5.540000     -5.590000     -1.185000
C           6.880000     -5.764000     -0.775000
C           1.436000      8.057000      3.520000
H          -0.693000      6.474000      2.780000
H          -0.711000      4.043000      2.509000
H           3.560000      4.141000      3.368000
H           1.782000      2.518000      0.581000
H           7.230000     -1.742000      4.954000
H           7.352000     -3.138000      2.812000
H           4.956000     -6.009000     -1.994000
H           7.588000     -6.435000     -1.244000
H           2.252000      8.533000      2.962000
C           1.676000      8.317000      5.001000
H           0.532000      8.587000      3.196000
H           2.617000      7.836000      5.294000
H           0.801000      7.880000      5.498000
C           1.856000      9.765000      5.366000
H           2.822000     10.093000      4.963000
C           1.917000      9.824000      6.926000
H           0.963000     10.333000      5.077000
H           2.740000      9.239000      7.353000
H           1.022000      9.357000      7.355000
C           2.087000     11.250000      7.411000
H           2.903000     11.649000      6.796000
C           2.370000     11.305000      8.904000
H           1.189000     11.866000      7.276000
H           1.384000     11.400000      9.375000
H           2.820000     12.236000      9.271000
H           2.820000     10.374000      9.272000
C           0.448000      7.703000     12.315000
C           0.354000      8.049000     10.989000
N          -0.262000      6.636000     12.795000
C          -0.255000      7.216000     10.021000
C          -0.918000      5.841000     11.925000
C          -0.963000      6.025000     10.523000
C          -1.878000      5.117000      9.766000
C          -2.974000      4.537000     10.405000
C          -1.721000      4.747000      8.376000
N          -3.863000      3.685000      9.832000
N          -0.712000      5.116000      7.621000
C          -2.455000      3.715000      7.826000
C          -3.601000      3.240000      8.568000
S          -0.917000      4.311000      6.185000
N          -2.121000      3.372000      6.543000
C          -4.555000      2.222000      8.073000
S          -4.391000      1.272000      6.610000
C          -5.740000      1.891000      8.668000
C          -5.857000      0.338000      6.963000
S          -6.498000      2.651000      9.986000
C          -6.506000      0.901000      8.025000
C          -6.444000     -0.688000      6.244000
C          -7.861000      1.493000      9.781000
C          -7.750000      0.671000      8.648000
N          -7.723000     -0.571000      5.965000
S          -5.622000     -2.064000      5.502000
C          -8.124000     -1.696000      5.280000
C          -7.156000     -2.545000      4.845000
C           1.093000      8.566000     13.365000
H           0.937000      8.905000     10.662000
H          -0.409000      7.596000      9.015000
H          -1.443000      5.040000     12.443000
H          -3.186000      4.773000     11.446000
H          -8.590000      1.483000     10.581000
H          -8.444000     -0.089000      8.307000
H          -9.157000     -1.840000      4.991000
H          -7.173000     -3.443000      4.242000
H           2.156000      8.326000     13.488000
C           0.351000      8.782000     14.678000
H           1.152000      9.540000     12.864000
H           0.319000      7.878000     15.297000
H          -0.700000      8.982000     14.435000
C           0.768000      9.924000     15.655000
H           0.937000     10.840000     15.076000
C           2.170000      9.674000     16.439000
H           0.035000     10.032000     16.463000
H           2.956000      9.414000     15.720000
H           1.921000      8.821000     17.082000
C           2.569000     10.926000     17.321000
H           3.647000     10.855000     17.513000
C           1.937000     10.878000     18.731000
H           2.312000     11.832000     16.759000
H           2.345000     11.642000     19.405000
H           2.134000      9.899000     19.187000
H           0.847000     10.988000     18.783000
$end

--------------------------------------------------------------

             Standard Nuclear Orientation (Angstroms)
    I     Atom           X                Y                Z
 ----------------------------------------------------------------
    1      C      -0.0295438079     2.9372276001    -4.2274210313
    2      C       0.2991358137     1.5680381660    -4.4237854876
    3      N       0.6861935127     3.7185230739    -3.4215584682
    4      C       1.3251375589     0.9860969436    -3.6908797416
    5      C       1.7307573752     3.1493118054    -2.7281798784
    6      C       2.0733483519     1.7824222894    -2.8410447264
    7      C       3.1800026366     1.3254503471    -2.0299159216
    8      C       4.5143751993     1.4224634035    -2.5247212678
    9      C       3.0311056809     0.7911150715    -0.7213195323
   10      N       5.6072710087     1.1902024853    -1.7969990572
   11      N       1.8060095946     0.5274171156    -0.1664159666
   12      C       4.1550440696     0.6822634995     0.0707182405
   13      C       5.4307350852     0.9958064422    -0.4636760483
   14      S       2.2047282957     0.1668411513     1.3573705576
   15      N       3.8551766107     0.2910026987     1.3321065601
   16      C       6.6696355226     1.2702689453     0.3169141391
   17      S       8.3123667046     0.9882376229    -0.0802729666
   18      C       6.5454060907     2.0988952471     1.4323855641
   19      C       8.8651305867     2.0759390134     1.2138969511
   20      S       5.1608546358     2.8201423927     2.1922235889
   21      C       7.7820963086     2.6207572127     1.8361805539
   22      C      10.2656738753     2.2796563213     1.5453237984
   23      C       6.3422910153     3.7696870730     3.2388362112
   24      C       7.6641269487     3.5748078582     2.8370939346
   25      N      11.0313704488     1.3944086204     0.9524601838
   26      S      11.0868016114     3.4484957923     2.6861886160
   27      C      12.3485439583     1.6376503179     1.2653586057
   28      C      12.5646747535     2.7548263436     2.1015291667
   29      C      -1.1862361558     3.5672219766    -4.9239006778
   30      H      -0.2233930972     1.0003034613    -5.1884617867
   31      H       1.5856796220    -0.0445004806    -3.9159970054
   32      H       2.1446381797     3.8152462125    -1.9720713908
   33      H       4.6382671673     1.6378968240    -3.5856841426
   34      H       6.0401383677     4.5407355704     3.9349353365
   35      H       8.4792579843     4.1473948576     3.2657249215
   36      H      13.0181815961     0.9666393787     0.7434124846
   37      H      13.5370651660     3.1273497191     2.3967396348
   38      H      -0.8903575258     4.5320512891    -5.3544308557
   39      C      -2.3081344614     3.8301561376    -3.9285259650
   40      H      -1.5758949102     2.9922211944    -5.7728012347
   41      H      -1.9195141475     4.4608895059    -3.1199218159
   42      H      -2.6050579981     2.8314353058    -3.5850203416
   43      C      -3.4772352682     4.5963588132    -4.4839229072
   44      H      -3.1459239411     5.6264504097    -4.6636257376
   45      C      -4.5695715335     4.6082133466    -3.3670240965
   46      H      -3.9132299707     4.0460155810    -5.3269086403
   47      H      -4.2367526453     5.0820342524    -2.4361060888
   48      H      -4.8054375358     3.5815827011    -3.0611617964
   49      C      -5.8090984824     5.3507066760    -3.8251480958
   50      H      -5.4225434470     6.2850821355    -4.2503535817
   51      C      -6.7896986596     5.5641926732    -2.6827777437
   52      H      -6.3843081461     4.8096349753    -4.5870275204
   53      H      -7.4566673441     4.6941030395    -2.7168189432
   54      H      -7.5371476571     6.3527692125    -2.8358040087
   55      H      -6.2906663573     5.5558044579    -1.7052393049
   56      C      -7.2632705521     2.1378486718     1.3594129306
   57      C      -6.6121054752     2.2592718017     0.1560557658
   58      N      -7.0796632370     1.0191872378     2.1261423156
   59      C      -5.5632025170     1.3954822441    -0.2382337021
   60      C      -6.1367983318     0.1249328381     1.7647895249
   61      C      -5.3110635275     0.2245897511     0.6203614876
   62      C      -4.4436398331    -0.9567904408     0.3259893144
   63      C      -4.8050044302    -2.2224463009     0.7880151490
   64      C      -3.1976570214    -0.9124189437    -0.4083178443
   65      N      -4.0939234225    -3.3644634073     0.6016962581
   66      N      -2.6401154884     0.1894851173    -0.8546606264
   67      C      -2.3377370825    -1.9925629271    -0.4186461411
   68      C      -2.8542989423    -3.2629357547     0.0383240154
   69      S      -1.1740987017    -0.2770844250    -1.4753486668
   70      N      -1.1329349697    -1.7815506803    -1.0344543100
   71      C      -2.1040127038    -4.5380992142    -0.0116130639
   72      S      -0.4174787346    -4.7324402859    -0.4447408955
   73      C      -2.6272684845    -5.7755958607     0.2386197034
   74      C      -0.4506976075    -6.4710588537    -0.0951368592
   75      S      -4.2558929796    -6.1924232828     0.4898669008
   76      C      -1.7407772253    -6.8625696815     0.1249264305
   77      C       0.5629161823    -7.4085187799    -0.1843667405
   78      C      -3.7270166172    -7.9094436611     0.6033958121
   79      C      -2.3676592184    -8.1113282355     0.3151527186
   80      N       0.3124353388    -8.5007737508    -0.8711049916
   81      S       2.2271927959    -7.2228390320     0.3771761206
   82      C       1.4218988856    -9.3141917528    -0.8154921129
   83      C       2.5640849431    -8.7846367956    -0.3036009551
   84      C      -8.3782876052     3.0433770972     1.8066815772
   85      H      -6.7954374823     3.1662673545    -0.4125411410
   86      H      -5.1713823430     1.4632504836    -1.2491918699
   87      H      -6.1048463997    -0.7145478997     2.4574663362
   88      H      -5.7374528480    -2.3585017801     1.3323953973
   89      H      -4.4763067391    -8.6069129256     0.9550233682
   90      H      -1.8219296806    -9.0481220172     0.3044905337
   91      H       1.4230119627   -10.2956454985    -1.2716645651
   92      H       3.5743896639    -9.1578562146    -0.2021433956
   93      H      -7.9997957098     3.8948485885     2.3849878839
   94      C      -9.6345636102     2.4083849905     2.3895577424
   95      H      -8.6702197283     3.5354885069     0.8708610837
   96      H      -9.4627913701     1.9654277674     3.3773250207
   97      H      -9.9005333493     1.5558927820     1.7522453133
   98      C     -10.9511774268     3.2307075062     2.5408711195
   99      H     -11.1194900692     3.8007173285     1.6191240518
  100      C     -10.9230834946     4.3549110770     3.7148119452
  101      H     -11.7861287526     2.5797793263     2.8254159984
  102      H     -10.0323130640     4.9847225785     3.6042564724
  103      H     -10.8636090114     3.7368387029     4.6189736156
  104      C     -12.2533214159     5.2122330053     3.7245681787
  105      H     -12.0310962898     6.1465477123     4.2552856381
  106      C     -13.3680486148     4.5592928760     4.5736149734
  107      H     -12.5476723921     5.3926596437     2.6836393959
  108      H     -14.2261789703     5.2250075764     4.7313242962
  109      H     -12.9691393195     4.2981117972     5.5624738199
  110      H     -13.7871897012     3.6201289882     4.1925691211
 ----------------------------------------------------------------

   11   -5663.4977731588      7.62E-06 Convergence criterion met
 Total energy in the final basis set = -5663.4977731588

                    Orbital Energies (a.u.)
 --------------------------------------------------------------

 Alpha MOs
 -- Occupied --
-88.995 -88.984 -88.936 -88.925 -88.922 -88.921 -88.916 -88.903
-14.393 -14.392 -14.387 -14.373 -14.353 -14.349 -14.343 -14.342
-14.334 -14.324 -10.272 -10.269 -10.264 -10.262 -10.259 -10.259
-10.253 -10.249 -10.240 -10.239 -10.237 -10.237 -10.234 -10.234
-10.234 -10.233 -10.232 -10.232 -10.229 -10.229 -10.227 -10.226
-10.226 -10.223 -10.223 -10.223 -10.222 -10.220 -10.219 -10.219
-10.214 -10.214 -10.208 -10.204 -10.204 -10.201 -10.197 -10.196
-10.185 -10.183 -10.181 -10.180 -10.179 -10.177 -10.177 -10.176
-10.176 -10.175 -10.173 -10.171  -8.050  -8.040  -7.995  -7.984
 -7.984  -7.980  -7.975  -7.963  -6.015  -6.009  -6.008  -6.005
 -5.999  -5.998  -5.960  -5.956  -5.952  -5.948  -5.947  -5.945
 -5.944  -5.944  -5.941  -5.941  -5.940  -5.940  -5.937  -5.937
 -5.931  -5.927  -5.924  -5.920  -1.047  -1.044  -0.974  -0.969
 -0.962  -0.950  -0.941  -0.929  -0.918  -0.914  -0.909  -0.908
 -0.847  -0.841  -0.840  -0.823  -0.816  -0.812  -0.812  -0.809
 -0.805  -0.801  -0.798  -0.792  -0.790  -0.780  -0.772  -0.765
 -0.750  -0.747  -0.744  -0.737  -0.725  -0.717  -0.716  -0.707
 -0.693  -0.689  -0.675  -0.672  -0.657  -0.653  -0.645  -0.642
 -0.642  -0.635  -0.633  -0.619  -0.613  -0.611  -0.601  -0.597
 -0.592  -0.589  -0.582  -0.580  -0.579  -0.577  -0.574  -0.555
 -0.549  -0.548  -0.539  -0.537  -0.528  -0.523  -0.522  -0.514
 -0.512  -0.504  -0.502  -0.500  -0.498  -0.486  -0.481  -0.480
 -0.475  -0.475  -0.469  -0.467  -0.464  -0.454  -0.452  -0.449
 -0.448  -0.443  -0.439  -0.439  -0.438  -0.435  -0.434  -0.432
 -0.429  -0.428  -0.425  -0.423  -0.420  -0.416  -0.413  -0.412
 -0.410  -0.409  -0.406  -0.402  -0.402  -0.399  -0.397  -0.395
 -0.394  -0.393  -0.390  -0.389  -0.388  -0.387  -0.386  -0.382
 -0.379  -0.375  -0.374  -0.369  -0.368  -0.362  -0.356  -0.354
 -0.353  -0.352  -0.351  -0.350  -0.349  -0.347  -0.343  -0.342
 -0.339  -0.338  -0.335  -0.333  -0.329  -0.329  -0.326  -0.323
 -0.322  -0.316  -0.310  -0.308  -0.307  -0.307  -0.303  -0.302
 -0.295  -0.291  -0.291  -0.290  -0.288  -0.288  -0.285  -0.282
 -0.279  -0.272  -0.270  -0.263  -0.254  -0.251  -0.251  -0.247
 -0.244  -0.240  -0.239  -0.228  -0.195  -0.193

          Ground-State Mulliken Net Atomic Charges

     Atom                 Charge (a.u.)
  ----------------------------------------
      1 C                     0.289625
      2 C                    -0.125746
      3 N                    -0.479286
      4 C                    -0.059142
      5 C                     0.076708
      6 C                     0.013900
      7 C                    -0.046024
      8 C                     0.082100
      9 C                     0.243973
     10 N                    -0.475165
     11 N                    -0.540316
     12 C                     0.221328
     13 C                     0.232357
     14 S                     0.623932
     15 N                    -0.541607
     16 C                    -0.186070
     17 S                     0.359832
     18 C                    -0.130295
     19 C                    -0.248987
     20 S                     0.255668
     21 C                     0.165260
     22 C                     0.075761
     23 C                    -0.307785
     24 C                    -0.071629
     25 N                    -0.420059
     26 S                     0.274380
     27 C                     0.118605
     28 C                    -0.321897
     29 C                    -0.227336
     30 H                     0.092110
     31 H                     0.106153
     32 H                     0.112721
     33 H                     0.115379
     34 H                     0.128457
     35 H                     0.112658
     36 H                     0.116329
     37 H                     0.136847
     38 H                     0.111972
     39 C                    -0.171234
     40 H                     0.090654
     41 H                     0.118478
     42 H                     0.091809
     43 C                    -0.175740
     44 H                     0.100077
     45 C                    -0.183098
     46 H                     0.092484
     47 H                     0.094768
     48 H                     0.089927
     49 C                    -0.166410
     50 H                     0.092114
     51 C                    -0.330103
     52 H                     0.092434
     53 H                     0.102193
     54 H                     0.102451
     55 H                     0.103851
     56 C                     0.273395
     57 C                    -0.125794
     58 N                    -0.483867
     59 C                    -0.068556
     60 C                     0.065345
     61 C                     0.036508
     62 C                     0.042662
     63 C                     0.058563
     64 C                     0.226488
     65 N                    -0.537339
     66 N                    -0.561437
     67 C                     0.163391
     68 C                     0.302271
     69 S                     0.632368
     70 N                    -0.525447
     71 C                    -0.217133
     72 S                     0.312448
     73 C                    -0.108480
     74 C                    -0.226618
     75 S                     0.287452
     76 C                     0.175199
     77 C                     0.011109
     78 C                    -0.326224
     79 C                    -0.036684
     80 N                    -0.409060
     81 S                     0.260030
     82 C                     0.112569
     83 C                    -0.294983
     84 C                    -0.233376
     85 H                     0.092037
     86 H                     0.116695
     87 H                     0.103431
     88 H                     0.113744
     89 H                     0.125760
     90 H                     0.117000
     91 H                     0.108361
     92 H                     0.140092
     93 H                     0.116882
     94 C                    -0.163185
     95 H                     0.097010
     96 H                     0.110237
     97 H                     0.095316
     98 C                    -0.190705
     99 H                     0.085237
    100 C                    -0.185299
    101 H                     0.098831
    102 H                     0.089053
    103 H                     0.092968
    104 C                    -0.171493
    105 H                     0.095353
    106 C                    -0.323137
    107 H                     0.095888
    108 H                     0.099568
    109 H                     0.103969
    110 H                     0.102216
  ----------------------------------------
  Sum of atomic charges =     0.000000

                    Cartesian Multipole Moments
 -----------------------------------------------------------------
    Charge (ESU x 10^10)
                 0.0000
    Dipole Moment (Debye)
         X       2.5417      Y       0.9852      Z      -0.2554
       Tot       2.7379
    Quadrupole Moments (Debye-Ang)
        XX    -415.3951     XY      -3.1099     YY    -419.2603
        XZ      25.1764     YZ       7.4670     ZZ    -436.9888

 Total job time:  105.86s(wall), 1158.25s(cpu)
        *  Thank you very much for using Q-Chem.  Have a nice day.  *
