 Q-Chem 4.4, Q-Chem, Inc., Pleasanton, CA (2016)
 Q-Chem 4.4.2 for Intel X86 Linux

User input:
--------------------------------------------------------------
$comment
SP
$end

$rem
MEM_STATIC 5000
MEM_TOTAL 20000
JOBTYPE SP
EXCHANGE B3LYP
BASIS 6-31g(d,p)
$end

$molecule
0 1
C          11.480000     11.105000      1.123000
C          10.387000     11.481000      0.262000
N          11.427000     11.406000      2.452000
C           9.192000     11.945000      0.856000
C          10.320000     11.984000      2.967000
C           9.156000     12.212000      2.246000
C           7.897000     12.739000      2.892000
C           7.040000     13.656000      2.264000
C           7.354000     12.082000      4.027000
N           5.763000     13.923000      2.703000
N           7.967000     11.115000      4.655000
C           6.171000     12.431000      4.618000
C           5.350000     13.346000      3.858000
S           6.964000     10.663000      5.840000
N           5.671000     11.595000      5.557000
C           4.017000     13.807000      4.336000
S           2.528000     13.904000      3.403000
C           3.753000     14.101000      5.676000
C           1.599000     14.423000      4.824000
S           4.875000     14.205000      7.035000
C           2.450000     14.524000      5.890000
C           0.202000     14.823000      4.815000
C           3.453000     14.776000      7.993000
C           2.258000     14.899000      7.286000
N          -0.393000     14.546000      3.647000
S          -0.544000     16.001000      5.767000
C          -1.578000     15.253000      3.564000
C          -1.715000     16.200000      4.552000
C          12.771000     10.475000      0.673000
H          10.462000     11.299000     -0.806000
H           8.327000     12.156000      0.234000
H          10.322000     12.250000      4.023000
H           7.261000     14.071000      1.281000
H           3.653000     14.964000      9.040000
H           1.276000     15.156000      7.668000
H          -2.192000     15.185000      2.676000
H          -2.543000     16.885000      4.679000
H          12.787000     10.526000     -0.423000
C          12.809000      8.953000      1.143000
H          13.651000     10.992000      1.076000
H          12.005000      8.410000      0.631000
H          12.726000      8.837000      2.231000
C          14.139000      8.259000      0.632000
H          14.415000      8.756000     -0.306000
C          13.994000      6.771000      0.254000
H          14.920000      8.416000      1.386000
H          13.280000      6.730000     -0.577000
H          13.540000      6.270000      1.117000
C          15.276000      6.109000     -0.214000
H          15.775000      6.671000     -1.012000
C          15.017000      4.571000     -0.471000
H          15.996000      6.167000      0.612000
H          15.904000      3.927000     -0.523000
H          14.346000      4.493000     -1.335000
H          14.447000      4.132000      0.357000
C          20.321000      7.814000     -2.326000
C          19.038000      7.587000     -1.938000
N          21.173000      8.546000     -1.572000
C          18.481000      8.132000     -0.770000
C          20.764000      8.965000     -0.375000
C          19.415000      8.650000      0.106000
C          18.902000      8.983000      1.515000
C          17.611000      9.555000      1.670000
C          19.617000      8.744000      2.687000
N          17.185000     10.109000      2.862000
N          20.786000      8.137000      2.729000
C          19.088000      9.211000      3.874000
C          17.858000      9.894000      3.987000
S          21.189000      8.190000      4.342000
N          19.887000      8.951000      4.920000
C          17.151000     10.379000      5.267000
S          17.977000     10.529000      6.797000
C          15.830000     10.779000      5.345000
C          16.510000     11.123000      7.575000
S          14.618000     11.059000      4.119000
C          15.463000     11.160000      6.640000
C          16.416000     11.672000      8.875000
C          13.653000     11.838000      5.403000
C          14.226000     11.801000      6.653000
N          17.587000     11.821000      9.518000
S          14.989000     12.278000      9.840000
C          17.410000     12.359000     10.782000
C          16.106000     12.659000     11.166000
C          20.869000      7.128000     -3.562000
H          18.385000      6.992000     -2.569000
H          17.457000      7.870000     -0.519000
H          21.432000      9.603000      0.203000
H          16.953000      9.825000      0.845000
H          12.748000     12.355000      5.112000
H          13.780000     12.238000      7.539000
H          18.295000     12.433000     11.400000
H          15.816000     13.115000     12.104000
H          21.809000      6.589000     -3.394000
C          21.181000      8.127000     -4.650000
H          20.263000      6.347000     -4.037000
H          21.633000      7.593000     -5.495000
H          21.855000      8.900000     -4.260000
C          19.855000      8.883000     -5.100000
H          19.243000      8.163000     -5.658000
C          20.111000     10.143000     -5.933000
H          19.277000      9.166000     -4.212000
H          19.229000     10.315000     -6.562000
H          20.905000      9.968000     -6.669000
C          20.508000     11.442000     -5.136000
H          21.501000     11.302000     -4.692000
C          19.442000     11.854000     -4.067000
H          20.539000     12.320000     -5.794000
H          19.639000     11.174000     -3.229000
H          18.422000     11.664000     -4.421000
H          19.599000     12.867000     -3.676000
$end

--------------------------------------------------------------

             Standard Nuclear Orientation (Angstroms)
    I     Atom           X                Y                Z
 ----------------------------------------------------------------
    1      C      -0.2155544541    -2.2964772741    -0.0860885818
    2      C      -1.1105109327    -3.4026855766    -0.3156579457
    3      N      -0.6949018326    -1.0204644546    -0.1269343329
    4      C      -2.4998017477    -3.1478998451    -0.3490085458
    5      C      -2.0163263786    -0.8038577749    -0.3049138703
    6      C      -2.9692177485    -1.8121121279    -0.3511977408
    7      C      -4.4493162532    -1.5208664243    -0.4190973484
    8      C      -5.3458993156    -2.2842894114    -1.1826719387
    9      C      -5.0484269449    -0.6654525988     0.5421812616
   10      N      -6.7129119230    -2.2198352383    -1.0348166355
   11      N      -4.3617783578     0.0209578055     1.4154489609
   12      C      -6.3921221049    -0.4209020614     0.6146336722
   13      C      -7.2209937312    -1.2993070228    -0.1792444991
   14      S      -5.4574353982     0.8071666860     2.3076088380
   15      N      -6.8486142308     0.2439427861     1.7010098813
   16      C      -8.7065783489    -1.1959195946    -0.1948452451
   17      S      -9.8656009053    -2.5143619478    -0.0707667414
   18      C      -9.3809426796     0.0273972250    -0.1733811257
   19      C     -11.2390842120    -1.3895933198    -0.0798298462
   20      S      -8.7284794749     1.6611447442    -0.3208321685
   21      C     -10.7597824288    -0.1148507245    -0.2065544149
   22      C     -12.6402912433    -1.7738044687    -0.1061100369
   23      C     -10.4518789349     2.2048295863    -0.3346196107
   24      C     -11.4060730288     1.1907140840    -0.2706948161
   25      N     -12.8059737656    -3.0864163395     0.1050235192
   26      S     -13.9181192619    -0.9779026939    -0.8704397561
   27      C     -14.0831363460    -3.4489775396    -0.2801623052
   28      C     -14.7417568778    -2.4604851714    -0.9735769236
   29      C       1.2737941511    -2.4017647870     0.1058391958
   30      H      -0.7130566155    -4.4128112693    -0.3480485406
   31      H      -3.1979362096    -3.9751370333    -0.4379855517
   32      H      -2.3644786321     0.2256547980    -0.3741227607
   33      H      -5.0112682474    -3.1136148650    -1.8052442961
   34      H     -10.5925314040     3.2770048617    -0.3816309054
   35      H     -12.4839047986     1.2874044402    -0.1983992354
   36      H     -14.3997807059    -4.4812263872    -0.2141118246
   37      H     -15.7378776952    -2.5198346259    -1.3920968864
   38      H       1.5557092651    -3.4338130673    -0.1380321137
   39      C       1.6347981562    -2.0885813058     1.6258458456
   40      H       1.8282992695    -1.7089829706    -0.5396648155
   41      H       1.1859550510    -2.8649231344     2.2577020255
   42      H       1.3123552555    -1.0901594389     1.9472075598
   43      C       3.1945508762    -2.2463808803     1.8580693304
   44      H       3.5441441699    -3.0088519273     1.1513505521
   45      C       3.5954213849    -2.7900946416     3.2443345218
   46      H       3.6732892374    -1.2835660465     1.6414517470
   47      H       3.1641149381    -3.7952163582     3.3201176593
   48      H       3.1024496212    -2.1519960833     3.9870963074
   49      C       5.0905175859    -2.9181980661     3.4658494473
   50      H       5.5902647142    -3.4753929043     2.6649526249
   51      C       5.3699767107    -3.3854285276     4.9498212440
   52      H       5.5236416847    -1.9144346633     3.3714961422
   53      H       6.3890605811    -3.2334276622     5.3274093823
   54      H       4.9976179582    -4.4126986335     5.0440872979
   55      H       4.7610192937    -2.8090488525     5.6570428036
   56      C       9.7777716190    -3.2692738292     0.1907938084
   57      C       8.5634572936    -3.3020510411     0.8011448332
   58      N      10.1529885516    -2.2307452391    -0.5908164660
   59      C       7.5899256501    -2.3050979928     0.6284637440
   60      C       9.3452429208    -1.1743863863    -0.6762797335
   61      C       8.0720742307    -1.1466911255     0.0508113607
   62      C       7.1392685009     0.0721747190     0.1106321228
   63      C       5.7429026731    -0.1084217722    -0.0776160705
   64      C       7.5659433719     1.3750478110     0.3604325644
   65      N       4.8811439588     0.9509906021    -0.2880283789
   66      N       8.8095614191     1.7034154701     0.6474218203
   67      C       6.6362054606     2.3909316702     0.2581271344
   68      C       5.2742059027     2.1990398904    -0.0585631702
   69      S       8.7497192874     3.3607921598     0.7759069477
   70      N       7.1788150384     3.5969326049     0.4845196954
   71      C       4.1513763669     3.2523106692    -0.1164293970
   72      S       4.4738153862     4.9652952815    -0.2024107718
   73      C       2.7977347659     2.9732905209    -0.1468789080
   74      C       2.7485758195     5.3267697672    -0.2580312155
   75      S       1.9153952421     1.4758159888    -0.3185384275
   76      C       2.0145840316     4.1316119775    -0.1897896376
   77      C       2.1661113857     6.5866666883    -0.5293832588
   78      C       0.4676778354     2.4844476472    -0.5896444729
   79      C       0.6842211856     3.8386127605    -0.4822022856
   80      N       3.0347999219     7.5587192760    -0.8570797555
   81      S       0.4260271284     7.1388524862    -0.5739660139
   82      C       2.3884268904     8.7587763767    -1.1031160522
   83      C       1.0010261815     8.7661015785    -0.9893724180
   84      C      10.8019375295    -4.3469296941     0.4880109421
   85      H       8.2995301050    -4.1517195519     1.4232387657
   86      H       6.6595902151    -2.3947095503     1.1822387409
   87      H       9.6239941050    -0.3665572550    -1.3523432452
   88      H       5.2702604257    -1.0616783576    -0.3108545500
   89      H      -0.4423701272     1.9890506204    -0.9017173676
   90      H      -0.0828054931     4.5901525543    -0.6296438418
   91      H       3.0222958219     9.6152409712    -1.2910085106
   92      H       0.3586410869     9.6150663523    -1.1855361330
   93      H      11.7823334672    -3.9601593839     0.7906287417
   94      C      11.0758474978    -5.1935545613    -0.7315335071
   95      H      10.5957448036    -5.0521080427     1.3022775179
   96      H      11.8663318529    -5.9135768410    -0.4862023002
   97      H      11.3688721091    -4.5497837635    -1.5703426255
   98      C       9.7489764922    -5.9420068534    -1.1914731780
   99      H       9.5407124742    -6.7220434166    -0.4481851726
  100      C       9.8290268397    -6.5380399760    -2.6005017294
  101      H       8.9051502824    -5.2423030721    -1.1584739965
  102      H       9.1284993954    -7.3806735429    -2.6492764325
  103      H      10.8008440266    -7.0190459919    -2.7647015099
  104      C       9.6077801237    -5.5394587019    -3.7980426805
  105      H      10.4487207685    -4.8367343390    -3.8402599978
  106      C       8.2302273934    -4.7999777684    -3.7318805752
  107      H       9.5478442354    -6.0721344948    -4.7558908882
  108      H       8.3955588169    -4.0098795362    -2.9890055495
  109      H       7.4381844401    -5.4565481334    -3.3531995537
  110      H       7.9765682412    -4.2855323436    -4.6671355883
 ----------------------------------------------------------------

    9   -5663.5132810428      8.97E-06 Convergence criterion met
 Total energy in the final basis set = -5663.5132810428

                    Orbital Energies (a.u.)
 --------------------------------------------------------------

 Alpha MOs
 -- Occupied --
-88.990 -88.985 -88.932 -88.925 -88.923 -88.921 -88.913 -88.907
-14.394 -14.386 -14.382 -14.379 -14.353 -14.348 -14.341 -14.336
-14.336 -14.333 -10.267 -10.266 -10.264 -10.264 -10.257 -10.254
-10.252 -10.249 -10.243 -10.241 -10.240 -10.240 -10.238 -10.236
-10.236 -10.236 -10.233 -10.230 -10.229 -10.229 -10.228 -10.227
-10.227 -10.225 -10.225 -10.224 -10.222 -10.222 -10.221 -10.220
-10.218 -10.213 -10.211 -10.209 -10.205 -10.202 -10.196 -10.194
-10.193 -10.189 -10.189 -10.181 -10.181 -10.181 -10.181 -10.177
-10.175 -10.173 -10.173 -10.167  -8.047  -8.041  -7.995  -7.984
 -7.981  -7.979  -7.973  -7.966  -6.012  -6.007  -6.006  -6.005
 -6.001  -5.999  -5.959  -5.955  -5.952  -5.948  -5.945  -5.945
 -5.944  -5.941  -5.941  -5.940  -5.938  -5.938  -5.936  -5.935
 -5.930  -5.929  -5.927  -5.922  -1.060  -1.044  -0.972  -0.955
 -0.951  -0.949  -0.942  -0.938  -0.923  -0.912  -0.908  -0.907
 -0.840  -0.840  -0.833  -0.831  -0.817  -0.812  -0.808  -0.805
 -0.805  -0.795  -0.793  -0.789  -0.787  -0.778  -0.768  -0.764
 -0.750  -0.742  -0.740  -0.736  -0.721  -0.720  -0.712  -0.704
 -0.695  -0.691  -0.674  -0.672  -0.660  -0.649  -0.646  -0.645
 -0.641  -0.634  -0.630  -0.627  -0.615  -0.608  -0.601  -0.598
 -0.594  -0.589  -0.587  -0.582  -0.580  -0.575  -0.574  -0.549
 -0.548  -0.544  -0.537  -0.533  -0.526  -0.520  -0.520  -0.513
 -0.512  -0.511  -0.503  -0.497  -0.491  -0.483  -0.482  -0.477
 -0.476  -0.476  -0.475  -0.471  -0.467  -0.456  -0.447  -0.447
 -0.445  -0.444  -0.438  -0.436  -0.431  -0.430  -0.429  -0.429
 -0.428  -0.426  -0.426  -0.422  -0.419  -0.418  -0.417  -0.412
 -0.408  -0.404  -0.402  -0.400  -0.400  -0.398  -0.396  -0.396
 -0.394  -0.394  -0.394  -0.390  -0.388  -0.386  -0.384  -0.380
 -0.380  -0.373  -0.372  -0.370  -0.367  -0.364  -0.364  -0.363
 -0.356  -0.353  -0.351  -0.349  -0.347  -0.346  -0.342  -0.341
 -0.341  -0.338  -0.338  -0.332  -0.332  -0.331  -0.323  -0.322
 -0.318  -0.314  -0.312  -0.311  -0.302  -0.301  -0.301  -0.298
 -0.296  -0.295  -0.294  -0.288  -0.287  -0.284  -0.282  -0.280
 -0.277  -0.273  -0.269  -0.266  -0.256  -0.256  -0.253  -0.248
 -0.244  -0.239  -0.238  -0.229  -0.197  -0.189

          Ground-State Mulliken Net Atomic Charges

     Atom                 Charge (a.u.)
  ----------------------------------------
      1 C                     0.271650
      2 C                    -0.131602
      3 N                    -0.492260
      4 C                    -0.075772
      5 C                     0.103238
      6 C                     0.046432
      7 C                     0.022542
      8 C                     0.038421
      9 C                     0.240396
     10 N                    -0.472992
     11 N                    -0.534694
     12 C                     0.154418
     13 C                     0.223072
     14 S                     0.604939
     15 N                    -0.474201
     16 C                    -0.215792
     17 S                     0.344711
     18 C                    -0.105504
     19 C                    -0.223972
     20 S                     0.250466
     21 C                     0.138909
     22 C                     0.047804
     23 C                    -0.303958
     24 C                    -0.062292
     25 N                    -0.426141
     26 S                     0.298291
     27 C                     0.112300
     28 C                    -0.313076
     29 C                    -0.227899
     30 H                     0.093981
     31 H                     0.103798
     32 H                     0.104097
     33 H                     0.113554
     34 H                     0.129950
     35 H                     0.111101
     36 H                     0.117132
     37 H                     0.135246
     38 H                     0.092443
     39 C                    -0.184217
     40 H                     0.139350
     41 H                     0.093766
     42 H                     0.130493
     43 C                    -0.201535
     44 H                     0.083345
     45 C                    -0.171396
     46 H                     0.111127
     47 H                     0.089210
     48 H                     0.097876
     49 C                    -0.185597
     50 H                     0.093960
     51 C                    -0.325214
     52 H                     0.099779
     53 H                     0.103925
     54 H                     0.105606
     55 H                     0.108145
     56 C                     0.294799
     57 C                    -0.127042
     58 N                    -0.481129
     59 C                    -0.059612
     60 C                     0.104793
     61 C                     0.007717
     62 C                    -0.002460
     63 C                     0.048526
     64 C                     0.279728
     65 N                    -0.534986
     66 N                    -0.570179
     67 C                     0.181505
     68 C                     0.326626
     69 S                     0.593167
     70 N                    -0.541897
     71 C                    -0.228240
     72 S                     0.363288
     73 C                    -0.123333
     74 C                    -0.215825
     75 S                     0.311147
     76 C                     0.124279
     77 C                     0.060341
     78 C                    -0.312726
     79 C                    -0.067994
     80 N                    -0.435746
     81 S                     0.253564
     82 C                     0.123555
     83 C                    -0.316100
     84 C                    -0.219800
     85 H                     0.085700
     86 H                     0.105889
     87 H                     0.115106
     88 H                     0.121196
     89 H                     0.132619
     90 H                     0.108431
     91 H                     0.112759
     92 H                     0.136262
     93 H                     0.110947
     94 C                    -0.183681
     95 H                     0.095567
     96 H                     0.087764
     97 H                     0.117445
     98 C                    -0.181176
     99 H                     0.080461
    100 C                    -0.179920
    101 H                     0.098774
    102 H                     0.083929
    103 H                     0.087176
    104 C                    -0.179485
    105 H                     0.100907
    106 C                    -0.324580
    107 H                     0.092045
    108 H                     0.112299
    109 H                     0.101572
    110 H                     0.098670
  ----------------------------------------
  Sum of atomic charges =     0.000000

                    Cartesian Multipole Moments
 -----------------------------------------------------------------
    Charge (ESU x 10^10)
                 0.0000
    Dipole Moment (Debye)
         X      -4.4184      Y      -0.2477      Z       0.8340
       Tot       4.5032
    Quadrupole Moments (Debye-Ang)
        XX    -409.8223     XY     -24.1024     YY    -415.7304
        XZ      20.8815     YZ      -5.5254     ZZ    -451.7770

 Total job time:  88.98s(wall), 985.76s(cpu)
        *  Thank you very much for using Q-Chem.  Have a nice day.  *
