 Q-Chem 4.4, Q-Chem, Inc., Pleasanton, CA (2016)
 Q-Chem 4.4.2 for Intel X86 Linux

User input:
--------------------------------------------------------------
$comment
SP
$end

$rem
MEM_STATIC 5000
MEM_TOTAL 20000
JOBTYPE SP
EXCHANGE B3LYP
BASIS 6-31g(d,p)
$end

$molecule
0 1
C          20.714000     12.158000      2.912000
C          19.902000     12.410000      4.027000
N          22.007000     11.813000      2.998000
C          20.485000     12.252000      5.345000
C          22.554000     11.767000      4.226000
C          21.861000     11.958000      5.423000
C          22.524000     12.043000      6.781000
C          21.843000     12.695000      7.819000
C          23.825000     11.638000      7.061000
N          22.322000     12.872000      9.023000
N          24.644000     10.974000      6.234000
C          24.290000     11.761000      8.320000
C          23.555000     12.457000      9.294000
S          25.893000     10.500000      7.123000
N          25.410000     11.062000      8.601000
C          24.040000     12.594000     10.722000
S          25.687000     12.164000     11.372000
C          23.265000     13.018000     11.793000
C          25.333000     12.864000     12.911000
S          21.541000     13.507000     11.938000
C          23.974000     13.056000     12.995000
C          26.196000     12.805000     14.031000
C          21.795000     13.651000     13.681000
C          23.084000     13.316000     14.096000
N          27.326000     12.125000     13.918000
S          26.070000     13.871000     15.397000
C          28.131000     12.258000     15.043000
C          27.593000     13.094000     15.945000
C          20.146000     12.347000      1.518000
H          18.890000     12.803000      3.987000
H          19.855000     12.383000      6.220000
H          23.615000     11.539000      4.135000
H          20.803000     13.011000      7.762000
H          20.974000     13.856000     14.356000
H          23.336000     13.240000     15.148000
H          29.038000     11.681000     15.169000
H          28.180000     13.387000     16.805000
H          20.943000     11.857000      0.945000
C          19.780000     13.714000      1.037000
H          19.205000     11.786000      1.458000
H          20.713000     14.284000      1.118000
H          19.040000     14.260000      1.634000
C          19.333000     13.691000     -0.510000
H          19.449000     14.677000     -0.976000
C          17.902000     13.172000     -0.817000
H          20.039000     13.067000     -1.072000
H          17.846000     12.150000     -0.422000
H          17.682000     13.059000     -1.885000
C          16.868000     14.107000     -0.106000
H          17.071000     14.508000      0.895000
C          15.583000     13.311000      0.052000
H          16.870000     15.041000     -0.681000
H          15.098000     13.258000     -0.931000
H          14.851000     13.858000      0.659000
H          15.783000     12.365000      0.570000
C          20.321000      7.814000     -2.326000
C          19.038000      7.587000     -1.938000
N          21.173000      8.546000     -1.572000
C          18.481000      8.132000     -0.770000
C          20.764000      8.965000     -0.375000
C          19.415000      8.650000      0.106000
C          18.902000      8.983000      1.515000
C          17.611000      9.555000      1.670000
C          19.617000      8.744000      2.687000
N          17.185000     10.109000      2.862000
N          20.786000      8.137000      2.729000
C          19.088000      9.211000      3.874000
C          17.858000      9.894000      3.987000
S          21.189000      8.190000      4.342000
N          19.887000      8.951000      4.920000
C          17.151000     10.379000      5.267000
S          17.977000     10.529000      6.797000
C          15.830000     10.779000      5.345000
C          16.510000     11.123000      7.575000
S          14.618000     11.059000      4.119000
C          15.463000     11.160000      6.640000
C          16.416000     11.672000      8.875000
C          13.653000     11.838000      5.403000
C          14.226000     11.801000      6.653000
N          17.587000     11.821000      9.518000
S          14.989000     12.278000      9.840000
C          17.410000     12.359000     10.782000
C          16.106000     12.659000     11.166000
C          20.869000      7.128000     -3.562000
H          18.385000      6.992000     -2.569000
H          17.457000      7.870000     -0.519000
H          21.432000      9.603000      0.203000
H          16.953000      9.825000      0.845000
H          12.748000     12.355000      5.112000
H          13.780000     12.238000      7.539000
H          18.295000     12.433000     11.400000
H          15.816000     13.115000     12.104000
H          21.809000      6.589000     -3.394000
C          21.181000      8.127000     -4.650000
H          20.263000      6.347000     -4.037000
H          21.633000      7.593000     -5.495000
H          21.855000      8.900000     -4.260000
C          19.855000      8.883000     -5.100000
H          19.243000      8.163000     -5.658000
C          20.111000     10.143000     -5.933000
H          19.277000      9.166000     -4.212000
H          19.229000     10.315000     -6.562000
H          20.905000      9.968000     -6.669000
C          20.508000     11.442000     -5.136000
H          21.501000     11.302000     -4.692000
C          19.442000     11.854000     -4.067000
H          20.539000     12.320000     -5.794000
H          19.639000     11.174000     -3.229000
H          18.422000     11.664000     -4.421000
H          19.599000     12.867000     -3.676000
$end

--------------------------------------------------------------

             Standard Nuclear Orientation (Angstroms)
    I     Atom           X                Y                Z
 ----------------------------------------------------------------
    1      C       2.2246634488    -0.8828437796     1.3959225135
    2      C       1.4330019040     0.2732334536     1.3427207347
    3      N       1.7584669565    -2.1142174624     1.1416594922
    4      C       0.0432330437     0.1309485229     0.9550681669
    5      C       0.4447873595    -2.2357311720     0.8793822823
    6      C      -0.4530621114    -1.1732720515     0.7586099972
    7      C      -1.9493598993    -1.3423579081     0.6054404735
    8      C      -2.7843778103    -0.2759034317     0.9683852878
    9      C      -2.5868976835    -2.5272043683     0.2522968208
   10      N      -4.0909856661    -0.3093610539     0.9231912784
   11      N      -1.9920920678    -3.6562935136    -0.1562983106
   12      C      -3.9300697351    -2.5375988231     0.1417717323
   13      C      -4.6950108510    -1.4349600718     0.5569462417
   14      S      -3.1615023406    -4.6057206311    -0.7095304159
   15      N      -4.4552041047    -3.5953009280    -0.5120341649
   16      C      -6.2033993805    -1.4074389201     0.4258560804
   17      S      -7.2973955616    -2.7999689763    -0.0031443841
   18      C      -6.9969838091    -0.2753386336     0.5524052642
   19      C      -8.7157674481    -1.8705610303     0.3258830638
   20      S      -6.6199246363     1.4545727601     0.8647431424
   21      C      -8.3571436303    -0.5446356354     0.3900064169
   22      C     -10.0367007462    -2.3243948620     0.0982428318
   23      C      -8.3403169888     1.8009239202     0.6559561032
   24      C      -9.1103387404     0.6810264836     0.3415244992
   25      N     -10.2051372116    -3.5159958285    -0.4529243786
   26      S     -11.4374953793    -1.6112583906     0.8381068524
   27      C     -11.5438435834    -3.8862350194    -0.4990458681
   28      C     -12.3346001187    -2.9708872197     0.0830078299
   29      C       3.6739979753    -0.7746639555     1.8310173949
   30      H       1.7514329069     1.2635860334     1.6557646040
   31      H      -0.5689791661     1.0217889389     0.8488346342
   32      H       0.2017506137    -3.2904024903     0.7586033496
   33      H      -2.4272859594     0.7240230052     1.2078378526
   34      H      -8.7148788778     2.8164783297     0.6493506029
   35      H     -10.1546145478     0.7742284664     0.0644226615
   36      H     -11.8735370663    -4.7771754196    -1.0176800462
   37      H     -13.3812410127    -3.1997374395     0.2319655951
   38      H       4.0120264449    -1.7759837892     1.5365121413
   39      C       4.0077690307    -0.3902959555     3.2363159835
   40      H       4.1512713249     0.0050252245     1.2243074706
   41      H       3.5123315807    -1.1544183614     3.8467327935
   42      H       3.6182384336     0.5735549508     3.5847156741
   43      C       5.5930973421    -0.4753373122     3.5065919773
   44      H       5.8124461840    -0.5919634225     4.5748112600
   45      C       6.4601589675     0.6889101080     2.9551365552
   46      H       5.9755674882    -1.4073473373     3.0721614299
   47      H       6.2918058838     0.7212810289     1.8715063772
   48      H       7.5408143991     0.5333104705     3.0539575593
   49      C       5.9997536142     2.0207530310     3.6356682143
   50      H       4.9369864713     2.2122056924     3.8303034588
   51      C       6.4353531889     3.1586669446     2.7272575497
   52      H       6.3680028338     1.9680238359     4.6674613836
   53      H       7.5187419094     3.2870458701     2.8460461500
   54      H       6.0336628709     4.1184107178     3.0751350831
   55      H       6.0520008223     3.0023198206     1.7114639979
   56      C       7.9429599411    -2.8349784448    -1.7587065415
   57      C       8.0673516106    -1.5424416819    -2.1612452716
   58      N       6.8266977125    -3.2825157402    -1.1390994029
   59      C       7.0880944607    -0.5654185762    -1.9204563901
   60      C       5.7913628771    -2.4527455367    -1.0157535968
   61      C       5.8679724811    -1.0811449490    -1.5288128491
   62      C       4.6878636112    -0.0980355735    -1.5421549257
   63      C       4.8918248989     1.2421159694    -1.1175567212
   64      C       3.4011878358    -0.4226465799    -1.9676230717
   65      N       3.8436361267     2.1056702066    -0.8629386204
   66      N       3.0636887047    -1.5901033843    -2.4774396528
   67      C       2.4082188580     0.5230604761    -1.8046820599
   68      C       2.6106692836     1.8086234405    -1.2583308086
   69      S       1.4274887354    -1.4382534316    -2.7358545370
   70      N       1.2123914650     0.0761450510    -2.2174537267
   71      C       1.5902711474     2.9534571711    -1.1113023314
   72      S      -0.1322079902     2.6968766162    -1.2249158844
   73      C       1.9053515019     4.2719469406    -0.8403150659
   74      C      -0.4459433770     4.4060901874    -0.9243030519
   75      S       3.4063776120     5.0498716509    -0.4019387871
   76      C       0.7716841352     5.0886074037    -0.7714747458
   77      C      -1.7075378333     4.9932987950    -0.6717115258
   78      C       2.4205618343     6.4797672707     0.0107205991
   79      C       1.0760546443     6.3423436576    -0.2454300721
   80      N      -2.7307901652     4.1273349991    -0.5719499632
   81      S      -2.2096541363     6.7272486520    -0.3958726024
   82      C      -3.9286137927     4.7789529652    -0.3288829276
   83      C      -3.8843797463     6.1659588060    -0.2187459817
   84      C       9.0124237202    -3.8459190303    -2.1231819970
   85      H       8.9777534258    -1.2215001928    -2.6579948013
   86      H       7.2554693180     0.4355626218    -2.3080686942
   87      H       4.9172365819    -2.7986281857    -0.4647359807
   88      H       5.8333767661     1.6299992847    -0.7308842306
   89      H       2.9121366620     7.3068637633     0.5059585022
   90      H       0.3372595756     7.1088440126    -0.0416163035
   91      H      -4.8170776197     4.1615713144    -0.3190378600
   92      H      -4.7282961205     6.8060985486     0.0046511161
   93      H       8.6260238128    -4.7486661156    -2.6111244236
   94      C       9.7355900723    -4.3449344012    -0.8955407274
   95      H       9.7948495339    -3.5454027893    -2.8305163132
   96      H      10.4512615276    -5.1178112899    -1.2020707962
   97      H       9.0094711839    -4.7376667892    -0.1727560904
   98      C      10.4778981435    -3.1409292643    -0.1663889205
   99      H      11.3284125259    -2.8528053856    -0.7971962730
  100      C      10.9400668513    -3.4674861453     1.2572633155
  101      H       9.8094621987    -2.2725688095    -0.1232553117
  102      H      11.7951169145    -2.8209316903     1.4896546363
  103      H      11.3750345621    -4.4731619785     1.3039131714
  104      C       9.8432497351    -3.3936778926     2.3849882622
  105      H       9.1149855833    -4.1991953903     2.2315024781
  106      C       9.1540742451    -1.9917885955     2.4777489370
  107      H      10.2877261812    -3.5084340694     3.3820242238
  108      H       8.4306000191    -2.0035255427     1.6531882731
  109      H       9.8656889234    -1.1796073653     2.2885871037
  110      H       8.5640789374    -1.8659888488     3.3941434811
 ----------------------------------------------------------------

   10   -5663.5014262686      3.78E-06 Convergence criterion met
 Total energy in the final basis set = -5663.5014262686

                    Orbital Energies (a.u.)
 --------------------------------------------------------------

 Alpha MOs
 -- Occupied --
-88.990 -88.985 -88.930 -88.929 -88.929 -88.920 -88.916 -88.914
-14.386 -14.384 -14.380 -14.378 -14.351 -14.345 -14.341 -14.337
-14.332 -14.327 -10.272 -10.266 -10.264 -10.260 -10.251 -10.249
-10.248 -10.247 -10.246 -10.243 -10.243 -10.240 -10.234 -10.233
-10.232 -10.232 -10.231 -10.231 -10.230 -10.229 -10.228 -10.228
-10.226 -10.226 -10.224 -10.224 -10.222 -10.221 -10.219 -10.214
-10.210 -10.210 -10.210 -10.208 -10.205 -10.204 -10.198 -10.193
-10.181 -10.181 -10.177 -10.176 -10.176 -10.175 -10.174 -10.174
-10.173 -10.172 -10.168 -10.168  -8.046  -8.040  -7.989  -7.989
 -7.987  -7.978  -7.975  -7.972  -6.011  -6.005  -6.005  -6.004
 -6.000  -5.998  -5.954  -5.953  -5.951  -5.950  -5.950  -5.947
 -5.946  -5.946  -5.944  -5.942  -5.940  -5.939  -5.937  -5.936
 -5.934  -5.933  -5.932  -5.929  -1.047  -1.043  -0.971  -0.965
 -0.958  -0.954  -0.942  -0.938  -0.916  -0.910  -0.909  -0.905
 -0.849  -0.840  -0.837  -0.832  -0.811  -0.808  -0.805  -0.802
 -0.799  -0.798  -0.795  -0.792  -0.780  -0.779  -0.766  -0.766
 -0.747  -0.745  -0.738  -0.738  -0.728  -0.723  -0.707  -0.705
 -0.695  -0.694  -0.680  -0.674  -0.654  -0.650  -0.648  -0.645
 -0.634  -0.633  -0.627  -0.623  -0.618  -0.610  -0.602  -0.600
 -0.596  -0.594  -0.586  -0.583  -0.578  -0.577  -0.558  -0.549
 -0.543  -0.541  -0.540  -0.539  -0.525  -0.521  -0.514  -0.514
 -0.512  -0.504  -0.500  -0.495  -0.484  -0.481  -0.480  -0.479
 -0.477  -0.474  -0.469  -0.467  -0.459  -0.455  -0.451  -0.449
 -0.445  -0.442  -0.437  -0.436  -0.435  -0.435  -0.434  -0.430
 -0.429  -0.424  -0.422  -0.419  -0.418  -0.418  -0.417  -0.413
 -0.409  -0.406  -0.403  -0.402  -0.400  -0.399  -0.396  -0.396
 -0.394  -0.393  -0.392  -0.391  -0.390  -0.388  -0.385  -0.383
 -0.382  -0.374  -0.372  -0.370  -0.366  -0.364  -0.359  -0.355
 -0.355  -0.352  -0.351  -0.348  -0.343  -0.342  -0.341  -0.340
 -0.339  -0.338  -0.337  -0.331  -0.330  -0.323  -0.314  -0.314
 -0.312  -0.309  -0.307  -0.305  -0.302  -0.301  -0.298  -0.297
 -0.296  -0.291  -0.289  -0.288  -0.287  -0.285  -0.282  -0.276
 -0.275  -0.273  -0.268  -0.261  -0.256  -0.256  -0.253  -0.252
 -0.246  -0.245  -0.232  -0.229  -0.195  -0.193

          Ground-State Mulliken Net Atomic Charges

     Atom                 Charge (a.u.)
  ----------------------------------------
      1 C                     0.255255
      2 C                    -0.131930
      3 N                    -0.489146
      4 C                    -0.092888
      5 C                     0.053113
      6 C                     0.060409
      7 C                     0.047532
      8 C                     0.057061
      9 C                     0.256342
     10 N                    -0.513902
     11 N                    -0.552972
     12 C                     0.190714
     13 C                     0.297463
     14 S                     0.608795
     15 N                    -0.559420
     16 C                    -0.245903
     17 S                     0.359694
     18 C                    -0.098374
     19 C                    -0.207801
     20 S                     0.284057
     21 C                     0.116692
     22 C                     0.069602
     23 C                    -0.307918
     24 C                    -0.086893
     25 N                    -0.441840
     26 S                     0.263856
     27 C                     0.131905
     28 C                    -0.302764
     29 C                    -0.229444
     30 H                     0.105855
     31 H                     0.123245
     32 H                     0.128898
     33 H                     0.117350
     34 H                     0.126615
     35 H                     0.113888
     36 H                     0.123234
     37 H                     0.120821
     38 H                     0.115247
     39 C                    -0.179362
     40 H                     0.110395
     41 H                     0.099377
     42 H                     0.096794
     43 C                    -0.189129
     44 H                     0.085470
     45 C                    -0.181180
     46 H                     0.093395
     47 H                     0.089216
     48 H                     0.103569
     49 C                    -0.173978
     50 H                     0.095573
     51 C                    -0.322356
     52 H                     0.091742
     53 H                     0.100046
     54 H                     0.090363
     55 H                     0.117649
     56 C                     0.294384
     57 C                    -0.123186
     58 N                    -0.480938
     59 C                    -0.064513
     60 C                     0.099244
     61 C                     0.012317
     62 C                     0.008468
     63 C                     0.034949
     64 C                     0.282709
     65 N                    -0.534678
     66 N                    -0.568838
     67 C                     0.199786
     68 C                     0.326091
     69 S                     0.605552
     70 N                    -0.551998
     71 C                    -0.226269
     72 S                     0.360560
     73 C                    -0.112207
     74 C                    -0.221214
     75 S                     0.286124
     76 C                     0.124262
     77 C                     0.061154
     78 C                    -0.313023
     79 C                    -0.066913
     80 N                    -0.440818
     81 S                     0.256437
     82 C                     0.120218
     83 C                    -0.316213
     84 C                    -0.219852
     85 H                     0.086234
     86 H                     0.108603
     87 H                     0.132716
     88 H                     0.119668
     89 H                     0.129383
     90 H                     0.112789
     91 H                     0.124086
     92 H                     0.137702
     93 H                     0.111664
     94 C                    -0.184151
     95 H                     0.095460
     96 H                     0.088012
     97 H                     0.118309
     98 C                    -0.181252
     99 H                     0.080732
    100 C                    -0.180195
    101 H                     0.098786
    102 H                     0.084148
    103 H                     0.087609
    104 C                    -0.183658
    105 H                     0.102444
    106 C                    -0.328282
    107 H                     0.092121
    108 H                     0.116129
    109 H                     0.101396
    110 H                     0.103914
  ----------------------------------------
  Sum of atomic charges =     0.000000

                    Cartesian Multipole Moments
 -----------------------------------------------------------------
    Charge (ESU x 10^10)
                 0.0000
    Dipole Moment (Debye)
         X      -1.6714      Y       3.6834      Z      -0.2058
       Tot       4.0501
    Quadrupole Moments (Debye-Ang)
        XX    -379.7864     XY       5.1041     YY    -424.5150
        XZ      -8.1560     YZ      10.3335     ZZ    -449.9045

 Total job time:  110.69s(wall), 1221.02s(cpu)
        *  Thank you very much for using Q-Chem.  Have a nice day.  *
