 Q-Chem 4.4, Q-Chem, Inc., Pleasanton, CA (2016)
 Q-Chem 4.4.2 for Intel X86 Linux

User input:
--------------------------------------------------------------
$comment
SP
$end

$rem
MEM_STATIC 5000
MEM_TOTAL 20000
JOBTYPE SP
EXCHANGE B3LYP
BASIS 6-31g(d,p)
$end

$molecule
0 1
C           1.117000     19.255000     10.528000
C           2.376000     19.909000     10.614000
N           0.863000     18.314000      9.594000
C           3.320000     19.635000      9.628000
C           1.751000     18.055000      8.620000
C           3.014000     18.690000      8.585000
C           3.993000     18.294000      7.406000
C           5.389000     18.233000      7.631000
C           3.587000     18.029000      6.117000
N           6.322000     17.765000      6.749000
N           2.381000     18.142000      5.614000
C           4.516000     17.750000      5.121000
C           5.889000     17.563000      5.455000
S           2.459000     17.727000      4.020000
N           4.042000     17.542000      3.867000
C           6.973000     17.118000      4.565000
S           8.517000     16.296000      5.131000
C           7.284000     17.660000      3.271000
C           9.201000     16.336000      3.513000
S           6.482000     19.007000      2.502000
C           8.459000     17.164000      2.696000
C          10.481000     15.859000      3.238000
C           7.677000     18.802000      1.184000
C           8.674000     17.878000      1.447000
N          10.866000     15.700000      1.967000
S          11.499000     15.078000      4.419000
C          12.206000     15.326000      1.932000
C          12.725000     14.932000      3.159000
C          -0.060000     19.538000     11.499000
H           2.501000     20.613000     11.432000
H           4.293000     20.118000      9.598000
H           1.443000     17.386000      7.817000
H           5.735000     18.389000      8.652000
H           7.626000     19.502000      0.361000
H           9.516000     17.681000      0.793000
H          12.669000     15.291000      0.955000
H          13.657000     14.405000      3.314000
H          -0.191000     20.624000     11.412000
C           0.118000     19.110000     12.963000
H          -0.978000     19.126000     11.061000
H          -0.749000     19.449000     13.543000
H           0.992000     19.667000     13.323000
C           0.276000     17.569000     13.188000
H          -0.648000     17.066000     12.878000
C           0.491000     17.153000     14.653000
H           1.118000     17.283000     12.546000
H          -0.487000     17.267000     15.136000
H           1.096000     17.930000     15.136000
C           1.062000     15.709000     14.729000
H           0.346000     15.095000     14.169000
C           1.305000     15.356000     16.172000
H           1.963000     15.625000     14.108000
H           1.749000     16.190000     16.730000
H           1.820000     14.407000     16.364000
H           0.339000     15.197000     16.668000
C          20.321000      7.814000     -2.326000
C          19.038000      7.587000     -1.938000
N          21.173000      8.546000     -1.572000
C          18.481000      8.132000     -0.770000
C          20.764000      8.965000     -0.375000
C          19.415000      8.650000      0.106000
C          18.902000      8.983000      1.515000
C          17.611000      9.555000      1.670000
C          19.617000      8.744000      2.687000
N          17.185000     10.109000      2.862000
N          20.786000      8.137000      2.729000
C          19.088000      9.211000      3.874000
C          17.858000      9.894000      3.987000
S          21.189000      8.190000      4.342000
N          19.887000      8.951000      4.920000
C          17.151000     10.379000      5.267000
S          17.977000     10.529000      6.797000
C          15.830000     10.779000      5.345000
C          16.510000     11.123000      7.575000
S          14.618000     11.059000      4.119000
C          15.463000     11.160000      6.640000
C          16.416000     11.672000      8.875000
C          13.653000     11.838000      5.403000
C          14.226000     11.801000      6.653000
N          17.587000     11.821000      9.518000
S          14.989000     12.278000      9.840000
C          17.410000     12.359000     10.782000
C          16.106000     12.659000     11.166000
C          20.869000      7.128000     -3.562000
H          18.385000      6.992000     -2.569000
H          17.457000      7.870000     -0.519000
H          21.432000      9.603000      0.203000
H          16.953000      9.825000      0.845000
H          12.748000     12.355000      5.112000
H          13.780000     12.238000      7.539000
H          18.295000     12.433000     11.400000
H          15.816000     13.115000     12.104000
H          21.809000      6.589000     -3.394000
C          21.181000      8.127000     -4.650000
H          20.263000      6.347000     -4.037000
H          21.633000      7.593000     -5.495000
H          21.855000      8.900000     -4.260000
C          19.855000      8.883000     -5.100000
H          19.243000      8.163000     -5.658000
C          20.111000     10.143000     -5.933000
H          19.277000      9.166000     -4.212000
H          19.229000     10.315000     -6.562000
H          20.905000      9.968000     -6.669000
C          20.508000     11.442000     -5.136000
H          21.501000     11.302000     -4.692000
C          19.442000     11.854000     -4.067000
H          20.539000     12.320000     -5.794000
H          19.639000     11.174000     -3.229000
H          18.422000     11.664000     -4.421000
H          19.599000     12.867000     -3.676000
$end

--------------------------------------------------------------

             Standard Nuclear Orientation (Angstroms)
    I     Atom           X                Y                Z
 ----------------------------------------------------------------
    1      C     -13.2615213529     0.2093957138     0.0173159800
    2      C     -12.5591713528     0.4575826726    -1.1931800798
    3      N     -12.6797088777    -0.4084059490     1.0671580392
    4      C     -11.2719683419    -0.0586117614    -1.3158981100
    5      C     -11.4489222045    -0.9353968001     0.9587799609
    6      C     -10.6848203433    -0.7888101708    -0.2220162560
    7      C      -9.2374626127    -1.4293630297    -0.2340841712
    8      C      -8.1817494361    -0.7880921753    -0.9250280041
    9      C      -8.9144645064    -2.6266588036     0.3648624482
   10      N      -6.8651353273    -1.1524894905    -0.8906931067
   11      N      -9.7230048434    -3.4773729433     0.9503212222
   12      C      -7.6330570471    -3.1547689116     0.2553515486
   13      C      -6.5883190860    -2.3823884472    -0.3308267613
   14      S      -8.8197780837    -4.7559404365     1.4685794451
   15      N      -7.4034291698    -4.3591082403     0.8361215713
   16      C      -5.1564728666    -2.7158996584    -0.3922081598
   17      S      -3.8035238018    -1.4819560148    -0.5561835005
   18      C      -4.5939447682    -3.9582959537    -0.8449051709
   19      C      -2.5939677077    -2.7443726842    -0.7312783549
   20      S      -5.4857924866    -5.3184285157    -1.4802169533
   21      C      -3.1988975272    -3.9649529693    -0.9500949017
   22      C      -1.2476621430    -2.4556725800    -0.9449780886
   23      C      -3.8869112825    -6.0796979553    -1.7470909598
   24      C      -2.8048892350    -5.2503060677    -1.5056548700
   25      N      -0.3399490039    -3.4326955198    -0.8428505599
   26      S      -0.5923119506    -0.8396657464    -0.9541453806
   27      C       0.9110648693    -2.9427838725    -1.2056891835
   28      C       0.9824614603    -1.5581738425    -1.2944787759
   29      C     -14.7338496826     0.6392190088     0.2534520101
   30      H     -13.0965991399     1.0074881473    -1.9607348614
   31      H     -10.6794360024     0.0535520279    -2.2199128837
   32      H     -11.0798397281    -1.5379143486     1.7882284098
   33      H      -8.3952362309     0.1847118325    -1.3661274837
   34      H      -3.8790749168    -7.0573901283    -2.2096778234
   35      H      -1.7708818649    -5.5229763387    -1.6844527497
   36      H       1.7065847954    -3.6712800951    -1.2867095562
   37      H       1.8900631650    -0.9714347734    -1.3432066978
   38      H     -15.2603348886     0.1769801781    -0.5911038443
   39      C     -15.0216616736     2.1453034273     0.3373446911
   40      H     -15.1165609461     0.1001183200     1.1293598456
   41      H     -16.1046949711     2.2988416038     0.4178114846
   42      H     -14.7028670954     2.5550122118    -0.6292129786
   43      C     -14.3394544947     2.8841630087     1.5369070630
   44      H     -14.7421273169     2.4872637383     2.4766998952
   45      C     -14.6029471602     4.3984585603     1.5915568354
   46      H     -13.2729781772     2.6505281728     1.4321834856
   47      H     -15.6400910777     4.5027914363     1.9324617275
   48      H     -14.6447498124     4.7681429410     0.5597482306
   49      C     -13.5668407439     5.0966406058     2.5167478024
   50      H     -13.6508974810     4.5726162917     3.4767399811
   51      C     -13.8251329553     6.5795717607     2.5063881147
   52      H     -12.5466977756     4.8355249291     2.2075149975
   53      H     -14.0518885920     6.9502406490     1.4987957088
   54      H     -13.0910137984     7.2081811388     3.0246634405
   55      H     -14.7430766599     6.7858342645     3.0714439833
   56      C      12.3864780630    -1.9500038876     1.5769737381
   57      C      11.2870403915    -1.9145703263     2.3758124384
   58      N      12.4493270977    -1.2480616503     0.4221702508
   59      C      10.1213005624    -1.2043692028     2.0469309780
   60      C      11.4437003607    -0.4273150018     0.1209381062
   61      C      10.2893450239    -0.3001440894     1.0163030125
   62      C       9.1476681059     0.7073179045     0.8139835972
   63      C       7.8026112815     0.2772335307     0.9680601058
   64      C       9.3345671535     2.0521771318     0.5003717279
   65      N       6.7285331071     1.0455346729     0.5614578060
   66      N      10.5138677845     2.6338920286     0.4130115505
   67      C       8.2162847866     2.8126339880     0.2209993639
   68      C       6.8911362836     2.3278822683     0.2549878212
   69      S      10.1424296883     4.1889768714    -0.0460438627
   70      N       8.5322777092     4.0760728211    -0.1014720113
   71      C       5.5831204897     3.1127802478     0.0393403202
   72      S       5.5460713429     4.6895556007    -0.7077091074
   73      C       4.3184982402     2.6590038745     0.3648285212
   74      C       3.7898776226     4.7599448819    -0.5626644038
   75      S       3.7367255706     1.1032009182     0.9046782430
   76      C       3.3217654110     3.5925759571     0.0617743448
   77      C       2.9401127852     5.7267478858    -1.1486922810
   78      C       2.0955005527     1.7208652275     0.5706224965
   79      C       2.0504283916     3.0291047630     0.1479218720
   80      N       3.5516737486     6.6097244240    -1.9569228304
   81      S       1.1329797888     5.9735448840    -1.0584062074
   82      C       2.6547477866     7.5226943140    -2.4865253217
   83      C       1.3181392636     7.3809870272    -2.1242150938
   84      C      13.6327472375    -2.6793281211     2.0390292620
   85      H      11.2753562911    -2.4895503582     3.2966036442
   86      H       9.3023468549    -1.2032143579     2.7607478251
   87      H      11.4714861908     0.0908577997    -0.8372251864
   88      H       7.5036426884    -0.7482285233     1.1814479132
   89      H       1.2706429929     1.0230905495     0.6315774389
   90      H       1.1373052991     3.5532954460    -0.1095880224
   91      H       3.0780612181     8.3210328004    -3.0815769159
   92      H       0.5009023757     7.9928019069    -2.4843351044
   93      H      14.5464147933    -2.0746842073     1.9947310113
   94      C      13.9176000067    -3.8811591726     1.1709566708
   95      H      13.6720884261    -3.0408482362     3.0737164018
   96      H      14.8592814635    -4.3358889830     1.5025314489
   97      H      13.9718740130    -3.5731163565     0.1192585413
   98      C      12.7195253747    -4.9243089509     1.2645927551
   99      H      12.7630080195    -5.3816424119     2.2612187456
  100      C      12.7428875378    -5.9964363448     0.1705077215
  101      H      11.7641410267    -4.3891209068     1.2051662884
  102      H      12.2229862824    -6.8818297661     0.5564224453
  103      H      13.7632264898    -6.3642670160     0.0081315527
  104      C      12.1826596383    -5.5724849425    -1.2389705185
  105      H      12.8557126195    -4.8302826720    -1.6849755342
  106      C      10.7044523810    -5.0620934043    -1.1818322437
  107      H      12.1126533044    -6.4336111699    -1.9160006018
  108      H      10.7994809135    -4.0333787813    -0.8128216715
  109      H      10.1110476586    -5.6267425081    -0.4532320619
  110      H      10.2409777081    -4.9846842939    -2.1732443967
 ----------------------------------------------------------------

   10   -5663.5114855812      3.86E-06 Convergence criterion met
 Total energy in the final basis set = -5663.5114855812

                    Orbital Energies (a.u.)
 --------------------------------------------------------------

 Alpha MOs
 -- Occupied --
-88.992 -88.990 -88.930 -88.927 -88.927 -88.925 -88.917 -88.914
-14.391 -14.390 -14.384 -14.377 -14.355 -14.352 -14.342 -14.341
-14.336 -14.326 -10.271 -10.268 -10.267 -10.266 -10.258 -10.256
-10.253 -10.253 -10.249 -10.246 -10.246 -10.242 -10.240 -10.240
-10.239 -10.238 -10.233 -10.233 -10.232 -10.231 -10.231 -10.231
-10.230 -10.230 -10.230 -10.229 -10.227 -10.225 -10.225 -10.225
-10.220 -10.214 -10.213 -10.209 -10.206 -10.205 -10.205 -10.196
-10.186 -10.185 -10.183 -10.179 -10.178 -10.177 -10.175 -10.175
-10.174 -10.174 -10.171 -10.169  -8.047  -8.045  -7.989  -7.988
 -7.986  -7.984  -7.976  -7.974  -6.012  -6.011  -6.007  -6.005
 -6.005  -6.003  -5.953  -5.952  -5.950  -5.950  -5.949  -5.948
 -5.946  -5.945  -5.945  -5.945  -5.942  -5.940  -5.940  -5.939
 -5.937  -5.935  -5.932  -5.930  -1.050  -1.048  -0.964  -0.959
 -0.954  -0.950  -0.946  -0.934  -0.917  -0.916  -0.913  -0.906
 -0.848  -0.843  -0.835  -0.827  -0.811  -0.809  -0.807  -0.804
 -0.802  -0.799  -0.795  -0.794  -0.784  -0.781  -0.768  -0.767
 -0.749  -0.745  -0.742  -0.740  -0.727  -0.722  -0.710  -0.706
 -0.697  -0.695  -0.677  -0.675  -0.653  -0.653  -0.648  -0.648
 -0.637  -0.637  -0.630  -0.627  -0.619  -0.610  -0.603  -0.596
 -0.595  -0.588  -0.585  -0.584  -0.581  -0.580  -0.568  -0.554
 -0.551  -0.542  -0.540  -0.539  -0.526  -0.523  -0.516  -0.515
 -0.511  -0.505  -0.502  -0.501  -0.485  -0.484  -0.480  -0.480
 -0.478  -0.473  -0.471  -0.470  -0.461  -0.458  -0.451  -0.446
 -0.444  -0.439  -0.437  -0.436  -0.435  -0.435  -0.434  -0.433
 -0.431  -0.430  -0.427  -0.421  -0.421  -0.419  -0.417  -0.416
 -0.407  -0.407  -0.403  -0.403  -0.401  -0.399  -0.398  -0.398
 -0.397  -0.393  -0.393  -0.391  -0.390  -0.388  -0.384  -0.384
 -0.379  -0.374  -0.373  -0.371  -0.368  -0.367  -0.365  -0.359
 -0.357  -0.354  -0.352  -0.350  -0.347  -0.346  -0.345  -0.343
 -0.342  -0.340  -0.339  -0.334  -0.333  -0.329  -0.319  -0.318
 -0.315  -0.314  -0.312  -0.306  -0.303  -0.302  -0.302  -0.299
 -0.299  -0.298  -0.293  -0.291  -0.287  -0.286  -0.281  -0.281
 -0.277  -0.275  -0.270  -0.269  -0.257  -0.255  -0.254  -0.246
 -0.245  -0.244  -0.234  -0.234  -0.195  -0.195

          Ground-State Mulliken Net Atomic Charges

     Atom                 Charge (a.u.)
  ----------------------------------------
      1 C                     0.262761
      2 C                    -0.113109
      3 N                    -0.482075
      4 C                    -0.083271
      5 C                     0.090681
      6 C                     0.033446
      7 C                     0.032706
      8 C                     0.050535
      9 C                     0.282866
     10 N                    -0.499685
     11 N                    -0.570571
     12 C                     0.173982
     13 C                     0.240289
     14 S                     0.608385
     15 N                    -0.520953
     16 C                    -0.193902
     17 S                     0.309575
     18 C                    -0.147414
     19 C                    -0.215994
     20 S                     0.269018
     21 C                     0.175037
     22 C                     0.052010
     23 C                    -0.294535
     24 C                    -0.059218
     25 N                    -0.433164
     26 S                     0.262470
     27 C                     0.118038
     28 C                    -0.319502
     29 C                    -0.225846
     30 H                     0.095484
     31 H                     0.101133
     32 H                     0.120629
     33 H                     0.110325
     34 H                     0.129400
     35 H                     0.125864
     36 H                     0.117363
     37 H                     0.146627
     38 H                     0.099812
     39 C                    -0.186356
     40 H                     0.118382
     41 H                     0.093891
     42 H                     0.087144
     43 C                    -0.172502
     44 H                     0.097514
     45 C                    -0.177711
     46 H                     0.099895
     47 H                     0.091541
     48 H                     0.086525
     49 C                    -0.168585
     50 H                     0.097543
     51 C                    -0.318092
     52 H                     0.096833
     53 H                     0.105615
     54 H                     0.097061
     55 H                     0.102177
     56 C                     0.294308
     57 C                    -0.122480
     58 N                    -0.480133
     59 C                    -0.063528
     60 C                     0.104536
     61 C                     0.011972
     62 C                     0.001085
     63 C                     0.047053
     64 C                     0.280238
     65 N                    -0.532293
     66 N                    -0.569287
     67 C                     0.181946
     68 C                     0.330387
     69 S                     0.596570
     70 N                    -0.542881
     71 C                    -0.225309
     72 S                     0.370214
     73 C                    -0.108996
     74 C                    -0.216660
     75 S                     0.281054
     76 C                     0.125032
     77 C                     0.059158
     78 C                    -0.325390
     79 C                    -0.064752
     80 N                    -0.435101
     81 S                     0.258544
     82 C                     0.124020
     83 C                    -0.314919
     84 C                    -0.219969
     85 H                     0.087643
     86 H                     0.110114
     87 H                     0.115607
     88 H                     0.118942
     89 H                     0.133060
     90 H                     0.114571
     91 H                     0.114700
     92 H                     0.139130
     93 H                     0.111533
     94 C                    -0.183931
     95 H                     0.096364
     96 H                     0.088448
     97 H                     0.117395
     98 C                    -0.180925
     99 H                     0.081088
    100 C                    -0.179941
    101 H                     0.098510
    102 H                     0.084691
    103 H                     0.087386
    104 C                    -0.179302
    105 H                     0.100517
    106 C                    -0.324380
    107 H                     0.092319
    108 H                     0.111309
    109 H                     0.102503
    110 H                     0.098161
  ----------------------------------------
  Sum of atomic charges =     0.000000

                    Cartesian Multipole Moments
 -----------------------------------------------------------------
    Charge (ESU x 10^10)
                 0.0000
    Dipole Moment (Debye)
         X      -1.2415      Y      -0.0960      Z      -0.6547
       Tot       1.4068
    Quadrupole Moments (Debye-Ang)
        XX    -437.5728     XY     -13.9296     YY    -422.2699
        XZ      31.4656     YZ      -8.6626     ZZ    -440.4665

 Total job time:  92.22s(wall), 986.96s(cpu)
        *  Thank you very much for using Q-Chem.  Have a nice day.  *
