 Q-Chem 4.4, Q-Chem, Inc., Pleasanton, CA (2016)
 Q-Chem 4.4.2 for Intel X86 Linux

User input:
--------------------------------------------------------------
$comment
SP
$end

$rem
MEM_STATIC 5000
MEM_TOTAL 20000
JOBTYPE SP
EXCHANGE B3LYP
BASIS 6-31g(d,p)
$end

$molecule
0 1
C          16.996000      8.188000     11.996000
C          17.472000      8.659000     10.731000
N          17.599000      7.154000     12.673000
C          18.650000      8.102000     10.299000
C          18.662000      6.609000     12.146000
C          19.337000      7.071000     11.009000
C          20.636000      6.499000     10.416000
C          20.932000      5.121000     10.536000
C          21.602000      7.311000      9.658000
N          22.108000      4.604000     10.140000
N          21.447000      8.573000      9.423000
C          22.785000      6.708000      9.231000
C          23.047000      5.328000      9.535000
S          22.839000      9.007000      8.741000
N          23.612000      7.584000      8.735000
C          24.251000      4.617000      9.034000
S          25.543000      5.330000      8.027000
C          24.554000      3.246000      9.193000
C          26.435000      3.790000      7.908000
S          23.628000      2.019000     10.122000
C          25.731000      2.808000      8.589000
C          27.641000      3.591000      7.068000
C          24.894000      0.894000      9.762000
C          25.915000      1.441000      9.012000
N          28.171000      4.715000      6.678000
S          28.317000      2.058000      6.607000
C          29.305000      4.366000      5.935000
C          29.539000      3.015000      5.824000
C          15.722000      8.756000     12.631000
H          16.986000      9.395000     10.096000
H          18.930000      8.401000      9.293000
H          19.015000      5.724000     12.674000
H          20.343000      4.389000     11.086000
H          24.900000     -0.061000     10.270000
H          26.808000      0.851000      8.838000
H          29.968000      5.134000      5.557000
H          30.355000      2.557000      5.282000
H          15.026000      9.121000     11.866000
C          15.991000      9.843000     13.679000
H          15.261000      7.894000     13.128000
H          16.406000     10.526000     12.927000
H          16.748000      9.559000     14.421000
C          14.783000     10.423000     14.341000
H          15.111000     11.189000     15.055000
C          13.873000      9.456000     15.131000
H          14.132000     10.935000     13.622000
H          14.445000      9.281000     16.050000
H          13.695000      8.585000     14.488000
C          12.470000     10.150000     15.444000
H          12.541000     11.134000     15.924000
C          11.658000      9.321000     16.394000
H          11.831000     10.354000     14.575000
H          10.708000      9.824000     16.612000
H          12.203000      9.203000     17.339000
H          11.395000      8.304000     16.079000
C          20.321000      7.814000     -2.326000
C          19.038000      7.587000     -1.938000
N          21.173000      8.546000     -1.572000
C          18.481000      8.132000     -0.770000
C          20.764000      8.965000     -0.375000
C          19.415000      8.650000      0.106000
C          18.902000      8.983000      1.515000
C          17.611000      9.555000      1.670000
C          19.617000      8.744000      2.687000
N          17.185000     10.109000      2.862000
N          20.786000      8.137000      2.729000
C          19.088000      9.211000      3.874000
C          17.858000      9.894000      3.987000
S          21.189000      8.190000      4.342000
N          19.887000      8.951000      4.920000
C          17.151000     10.379000      5.267000
S          17.977000     10.529000      6.797000
C          15.830000     10.779000      5.345000
C          16.510000     11.123000      7.575000
S          14.618000     11.059000      4.119000
C          15.463000     11.160000      6.640000
C          16.416000     11.672000      8.875000
C          13.653000     11.838000      5.403000
C          14.226000     11.801000      6.653000
N          17.587000     11.821000      9.518000
S          14.989000     12.278000      9.840000
C          17.410000     12.359000     10.782000
C          16.106000     12.659000     11.166000
C          20.869000      7.128000     -3.562000
H          18.385000      6.992000     -2.569000
H          17.457000      7.870000     -0.519000
H          21.432000      9.603000      0.203000
H          16.953000      9.825000      0.845000
H          12.748000     12.355000      5.112000
H          13.780000     12.238000      7.539000
H          18.295000     12.433000     11.400000
H          15.816000     13.115000     12.104000
H          21.809000      6.589000     -3.394000
C          21.181000      8.127000     -4.650000
H          20.263000      6.347000     -4.037000
H          21.633000      7.593000     -5.495000
H          21.855000      8.900000     -4.260000
C          19.855000      8.883000     -5.100000
H          19.243000      8.163000     -5.658000
C          20.111000     10.143000     -5.933000
H          19.277000      9.166000     -4.212000
H          19.229000     10.315000     -6.562000
H          20.905000      9.968000     -6.669000
C          20.508000     11.442000     -5.136000
H          21.501000     11.302000     -4.692000
C          19.442000     11.854000     -4.067000
H          20.539000     12.320000     -5.794000
H          19.639000     11.174000     -3.229000
H          18.422000     11.664000     -4.421000
H          19.599000     12.867000     -3.676000
$end

--------------------------------------------------------------

             Standard Nuclear Orientation (Angstroms)
    I     Atom           X                Y                Z
 ----------------------------------------------------------------
    1      C       6.1882910287     0.6103472551     0.7576450927
    2      C       4.8737713122     0.9300240618     0.2902195327
    3      N       6.5395214769    -0.6555419383     1.1641616635
    4      C       4.0226508565    -0.1374174411     0.1462764610
    5      C       5.6401212731    -1.5989977165     1.0887065909
    6      C       4.3759365541    -1.4753972928     0.4984541606
    7      C       3.3312826982    -2.5906896801     0.3222292693
    8      C       3.2429322904    -3.6441293299     1.2621011274
    9      C       2.3460925473    -2.6067769969    -0.7714825596
   10      N       2.4290401841    -4.6986561857     1.0814529894
   11      N       2.2698302516    -1.6890957049    -1.6791934765
   12      C       1.4946401580    -3.7060318504    -0.8814579917
   13      C       1.5900580754    -4.7942474515     0.0524275616
   14      S       1.1815313067    -2.2674260828    -2.7147046452
   15      N       0.8072012948    -3.6650577002    -1.9873829117
   16      C       0.6544038831    -5.9475734807     0.0294427285
   17      S      -0.6835088674    -6.1857127776    -1.1302818714
   18      C       0.6006234660    -7.0148046995     0.9540270634
   19      C      -1.2130472121    -7.7037696115    -0.3579363590
   20      S       1.7023744462    -7.3223938403     2.3387940828
   21      C      -0.4025922290    -7.9577428842     0.7385860061
   22      C      -2.4300476826    -8.4552002102    -0.7502358746
   23      C       0.8476786460    -8.8057198754     2.5980622123
   24      C      -0.1679438965    -9.0180936090     1.6883599268
   25      N      -2.8979547876    -8.0823270959    -1.9071302438
   26      S      -3.2044156472    -9.6966814984     0.1871351655
   27      C      -4.0100122474    -8.8970273359    -2.1508467289
   28      C      -4.2911397277    -9.8139718663    -1.1647138433
   29      C       7.2633152106     1.6910173270     0.9170195071
   30      H       4.5001353635     1.9230715827     0.0549116513
   31      H       3.0059403893     0.1475066680    -0.1085863999
   32      H       5.9489849491    -2.5432058448     1.5355759679
   33      H       3.9089036543    -3.7987591394     2.1093418043
   34      H       1.2527777786    -9.5226688806     3.2994920496
   35      H      -0.6815104017    -9.9731043933     1.6937308331
   36      H      -4.5380627251    -8.8327211344    -3.0938761056
   37      H      -5.1129906154   -10.5167612183    -1.1703923088
   38      H       6.8141639936     2.6706201460     1.1207534052
   39      C       8.2284423071     1.7762755825    -0.2718853324
   40      H       7.8261785658     1.3824119903     1.8061323174
   41      H       7.4301187822     2.0986433874    -0.9523091327
   42      H       8.6407676509     0.8047429246    -0.5725198372
   43      C       9.3067717769     2.8055013696    -0.1632214755
   44      H       9.9160978573     2.7693183682    -1.0751142972
   45      C      10.2914873429     2.6800601636     1.0207923580
   46      H       8.8955934849     3.8209492591    -0.1112215152
   47      H      10.9411448284     1.8534152021     0.7093870610
   48      H       9.6892524677     2.5201875629     1.9238581954
   49      C      11.1188128477     4.0338229253     1.1964991992
   50      H      11.6135847234     4.3916021105     0.2849665088
   51      C      12.2292030353     3.8624971542     2.1898602169
   52      H      10.5411655677     4.9114567014     1.5145881411
   53      H      12.7974332691     4.7962221553     2.2809921199
   54      H      12.9165866796     3.0805654380     1.8433627181
   55      H      11.9528241237     3.5771055894     3.2120389449
   56      C      -8.3880082519     2.5022252018     1.2748318265
   57      C      -7.5976970097     3.2121435436     2.1231160292
   58      N      -7.9248056880     2.0393994111     0.0909907593
   59      C      -6.2734499996     3.5686588774     1.8218442699
   60      C      -6.6335715109     2.2028065108    -0.1947773629
   61      C      -5.7397103679     2.8818685175     0.7487659843
   62      C      -4.2203069006     3.0058671987     0.5606797519
   63      C      -3.5882309002     4.2560766263     0.7959377310
   64      C      -3.3879260334     1.9534392433     0.1845581086
   65      N      -2.2861671942     4.5114862212     0.4103835266
   66      N      -3.7960070120     0.7115071231     0.0176793396
   67      C      -2.0611450527     2.2379375807    -0.0715901400
   68      C      -1.4815318274     3.5195761159     0.0450682252
   69      S      -2.4223292090    -0.0802369841    -0.4854484398
   70      N      -1.3771888132     1.1507843495    -0.4594286558
   71      C      -0.0049249113     3.9184138088    -0.1394162190
   72      S       1.1518024650     2.8908957731    -0.9467974568
   73      C       0.5532046955     5.1170968623     0.2640379659
   74      C       2.4291904412     4.0857005185    -0.7211194144
   75      S      -0.1549849756     6.5843830680     0.8932903639
   76      C       1.9189034462     5.1955279778    -0.0285205454
   77      C       3.7171894128     4.0537070233    -1.3044478514
   78      C       1.4355191943     7.3450418266     0.6132604753
   79      C       2.4043752383     6.4904666144     0.1408018290
   80      N       3.9246769099     3.0514671478    -2.1758577265
   81      S       5.1565729615     5.1651449902    -1.1381028920
   82      C       5.2068972788     3.0871785373    -2.6984518542
   83      C       6.0383236539     4.1171254798    -2.2673932985
   84      C      -9.7828279157     2.0933085056     1.7059480996
   85      H      -8.0048263965     3.5644289046     3.0658438196
   86      H      -5.7033440638     4.1076837499     2.5732778390
   87      H      -6.2781483112     1.8810081452    -1.1732824272
   88      H      -4.1134335457     5.1717866176     1.0645013043
   89      H       1.5129503341     8.4167407670     0.7415601240
   90      H       3.4186972249     6.7921283866    -0.0937873496
   91      H       5.4845002823     2.2650395552    -3.3447095942
   92      H       7.0487324626     4.2956117981    -2.6124971575
   93      H      -9.9890109635     1.0222088971     1.5937911583
   94      C     -10.8373806026     2.7829330969     0.8744280735
   95      H     -10.0735126805     2.2531166596     2.7513120178
   96      H     -11.8223355578     2.4078048695     1.1787758174
   97      H     -10.6503010318     2.5947174835    -0.1902226284
   98      C     -10.7461444903     4.3599172002     1.0670653226
   99      H     -11.1080618149     4.5860118461     2.0781068951
  100      C     -11.5241298159     5.1596553573     0.0172164224
  101      H      -9.6953118285     4.6717187486     1.0317451971
  102      H     -11.7955109538     6.1244882069     0.4628607316
  103      H     -12.4997007480     4.6985217480    -0.1786767901
  104      C     -10.8229684093     5.3512451311    -1.3798823718
  105      H     -10.7607663736     4.3808249540    -1.8870318435
  106      C      -9.4249004426     6.0461038188    -1.2729320820
  107      H     -11.3866971709     6.0443602335    -2.0175424209
  108      H      -8.7574386813     5.2373548388    -0.9506389163
  109      H      -9.4171056347     6.8181795930    -0.4946941751
  110      H      -9.0410583703     6.3844896669    -2.2434264310
 ----------------------------------------------------------------

    9   -5663.5233630194      9.41E-06 Convergence criterion met
 Total energy in the final basis set = -5663.5233630194

                    Orbital Energies (a.u.)
 --------------------------------------------------------------

 Alpha MOs
 -- Occupied --
-88.991 -88.981 -88.934 -88.932 -88.931 -88.921 -88.918 -88.906
-14.391 -14.385 -14.381 -14.376 -14.355 -14.345 -14.344 -14.342
-14.336 -14.322 -10.276 -10.270 -10.269 -10.261 -10.257 -10.255
-10.251 -10.250 -10.248 -10.247 -10.243 -10.241 -10.240 -10.240
-10.236 -10.234 -10.233 -10.233 -10.233 -10.231 -10.229 -10.228
-10.228 -10.228 -10.228 -10.227 -10.226 -10.220 -10.217 -10.214
-10.212 -10.210 -10.208 -10.206 -10.200 -10.196 -10.195 -10.187
-10.183 -10.179 -10.179 -10.178 -10.177 -10.177 -10.175 -10.174
-10.172 -10.172 -10.169 -10.166  -8.047  -8.038  -7.994  -7.993
 -7.989  -7.978  -7.977  -7.965  -6.012  -6.007  -6.005  -6.004
 -5.998  -5.995  -5.958  -5.958  -5.954  -5.954  -5.954  -5.950
 -5.950  -5.950  -5.946  -5.943  -5.941  -5.939  -5.938  -5.935
 -5.933  -5.930  -5.926  -5.921  -1.058  -1.050  -0.973  -0.961
 -0.959  -0.954  -0.946  -0.934  -0.921  -0.919  -0.915  -0.902
 -0.851  -0.838  -0.836  -0.819  -0.814  -0.813  -0.808  -0.806
 -0.802  -0.799  -0.799  -0.788  -0.782  -0.778  -0.769  -0.763
 -0.748  -0.747  -0.741  -0.737  -0.730  -0.718  -0.708  -0.708
 -0.697  -0.689  -0.679  -0.672  -0.654  -0.650  -0.650  -0.640
 -0.638  -0.631  -0.630  -0.621  -0.614  -0.605  -0.601  -0.598
 -0.598  -0.592  -0.586  -0.582  -0.582  -0.574  -0.555  -0.551
 -0.544  -0.544  -0.542  -0.539  -0.529  -0.521  -0.519  -0.516
 -0.516  -0.504  -0.499  -0.495  -0.487  -0.484  -0.482  -0.481
 -0.480  -0.472  -0.471  -0.467  -0.458  -0.457  -0.453  -0.451
 -0.446  -0.445  -0.438  -0.438  -0.437  -0.434  -0.432  -0.430
 -0.429  -0.427  -0.422  -0.421  -0.420  -0.417  -0.414  -0.411
 -0.410  -0.409  -0.406  -0.403  -0.402  -0.399  -0.399  -0.395
 -0.393  -0.393  -0.392  -0.390  -0.385  -0.384  -0.383  -0.378
 -0.377  -0.375  -0.373  -0.369  -0.369  -0.361  -0.360  -0.358
 -0.355  -0.352  -0.350  -0.347  -0.343  -0.342  -0.341  -0.341
 -0.340  -0.339  -0.334  -0.333  -0.332  -0.327  -0.320  -0.319
 -0.314  -0.314  -0.311  -0.309  -0.303  -0.301  -0.301  -0.299
 -0.295  -0.294  -0.292  -0.292  -0.291  -0.289  -0.286  -0.279
 -0.277  -0.271  -0.266  -0.260  -0.258  -0.256  -0.252  -0.249
 -0.247  -0.242  -0.235  -0.226  -0.198  -0.190

          Ground-State Mulliken Net Atomic Charges

     Atom                 Charge (a.u.)
  ----------------------------------------
      1 C                     0.229078
      2 C                    -0.097248
      3 N                    -0.473495
      4 C                    -0.071245
      5 C                     0.078383
      6 C                     0.037949
      7 C                     0.025331
      8 C                     0.046269
      9 C                     0.232247
     10 N                    -0.521824
     11 N                    -0.538854
     12 C                     0.207875
     13 C                     0.333371
     14 S                     0.580028
     15 N                    -0.550805
     16 C                    -0.231283
     17 S                     0.356212
     18 C                    -0.144614
     19 C                    -0.258260
     20 S                     0.288015
     21 C                     0.182251
     22 C                     0.081084
     23 C                    -0.291923
     24 C                    -0.109186
     25 N                    -0.426529
     26 S                     0.289792
     27 C                     0.114183
     28 C                    -0.305615
     29 C                    -0.232765
     30 H                     0.103343
     31 H                     0.116728
     32 H                     0.090279
     33 H                     0.118205
     34 H                     0.130239
     35 H                     0.101038
     36 H                     0.115329
     37 H                     0.131017
     38 H                     0.099611
     39 C                    -0.173888
     40 H                     0.113366
     41 H                     0.097277
     42 H                     0.102799
     43 C                    -0.184158
     44 H                     0.085019
     45 C                    -0.165468
     46 H                     0.081102
     47 H                     0.097866
     48 H                     0.103947
     49 C                    -0.180953
     50 H                     0.092560
     51 C                    -0.313531
     52 H                     0.092418
     53 H                     0.091543
     54 H                     0.099404
     55 H                     0.100605
     56 C                     0.295512
     57 C                    -0.122633
     58 N                    -0.480244
     59 C                    -0.063208
     60 C                     0.105832
     61 C                     0.011466
     62 C                     0.003449
     63 C                     0.046742
     64 C                     0.279857
     65 N                    -0.531369
     66 N                    -0.566685
     67 C                     0.183400
     68 C                     0.329637
     69 S                     0.599853
     70 N                    -0.546189
     71 C                    -0.223381
     72 S                     0.367098
     73 C                    -0.110418
     74 C                    -0.219894
     75 S                     0.289546
     76 C                     0.129242
     77 C                     0.042260
     78 C                    -0.311375
     79 C                    -0.067060
     80 N                    -0.430161
     81 S                     0.254735
     82 C                     0.122657
     83 C                    -0.311635
     84 C                    -0.220362
     85 H                     0.087922
     86 H                     0.110108
     87 H                     0.116122
     88 H                     0.120174
     89 H                     0.130445
     90 H                     0.112854
     91 H                     0.122176
     92 H                     0.146802
     93 H                     0.112101
     94 C                    -0.184578
     95 H                     0.096549
     96 H                     0.088776
     97 H                     0.117663
     98 C                    -0.180726
     99 H                     0.081112
    100 C                    -0.180793
    101 H                     0.098370
    102 H                     0.084869
    103 H                     0.087582
    104 C                    -0.179058
    105 H                     0.100536
    106 C                    -0.324589
    107 H                     0.092496
    108 H                     0.111022
    109 H                     0.102600
    110 H                     0.098673
  ----------------------------------------
  Sum of atomic charges =     0.000000

                    Cartesian Multipole Moments
 -----------------------------------------------------------------
    Charge (ESU x 10^10)
                 0.0000
    Dipole Moment (Debye)
         X      -1.7277      Y       1.7030      Z       0.9414
       Tot       2.6022
    Quadrupole Moments (Debye-Ang)
        XX    -435.3253     XY      29.1715     YY    -391.6661
        XZ     -20.7787     YZ      -0.1998     ZZ    -440.8393

 Total job time:  88.10s(wall), 960.27s(cpu)
        *  Thank you very much for using Q-Chem.  Have a nice day.  *
