 Q-Chem 4.4, Q-Chem, Inc., Pleasanton, CA (2016)
 Q-Chem 4.4.2 for Intel X86 Linux

User input:
--------------------------------------------------------------
$comment
SP
$end

$rem
MEM_STATIC 5000
MEM_TOTAL 20000
JOBTYPE SP
EXCHANGE B3LYP
BASIS 6-31g(d,p)
$end

$molecule
0 1
C          -9.384000    -14.784000     -6.480000
C          -8.765000    -14.155000     -5.389000
N         -10.680000    -15.144000     -6.307000
C          -9.412000    -13.866000     -4.186000
C         -11.386000    -14.804000     -5.199000
C         -10.773000    -14.186000     -4.054000
C         -11.498000    -13.966000     -2.777000
C         -10.867000    -14.191000     -1.546000
C         -12.914000    -13.660000     -2.630000
N         -11.463000    -14.056000     -0.346000
N         -13.727000    -13.460000     -3.679000
C         -13.477000    -13.464000     -1.402000
C         -12.717000    -13.628000     -0.228000
S         -15.100000    -13.048000     -2.994000
N         -14.748000    -12.943000     -1.411000
C         -13.248000    -13.394000      1.125000
S         -14.826000    -13.764000      1.699000
C         -12.404000    -13.005000      2.129000
C         -14.388000    -13.413000      3.375000
S         -10.782000    -12.473000      2.003000
C         -13.078000    -12.957000      3.351000
C         -15.101000    -13.810000      4.573000
C         -10.948000    -12.227000      3.820000
C         -12.173000    -12.557000      4.363000
N         -14.500000    -13.714000      5.722000
S         -16.634000    -14.579000      4.497000
C         -15.411000    -14.245000      6.706000
C         -16.592000    -14.650000      6.269000
C          -8.641000    -15.172000     -7.747000
H          -7.715000    -13.918000     -5.531000
H          -8.889000    -13.327000     -3.402000
H         -12.347000    -15.309000     -5.116000
H          -9.827000    -14.513000     -1.571000
H         -10.036000    -11.856000      4.268000
H         -12.381000    -12.414000      5.417000
H         -15.130000    -14.233000      7.751000
H         -17.438000    -15.032000      6.825000
H          -7.923000    -15.980000     -7.558000
C          -7.944000    -13.961000     -8.409000
H          -9.432000    -15.534000     -8.415000
H          -7.633000    -14.207000     -9.432000
H          -7.032000    -13.695000     -7.860000
C          -8.835000    -12.708000     -8.379000
H          -9.798000    -12.944000     -8.848000
C          -8.271000    -11.507000     -9.123000
H          -9.064000    -12.413000     -7.347000
H          -9.041000    -10.727000     -9.179000
H          -7.973000    -11.745000    -10.151000
C          -7.040000    -10.792000     -8.571000
H          -6.177000    -11.466000     -8.510000
C          -7.286000    -10.140000     -7.238000
H          -6.735000     -9.998000     -9.264000
H          -6.363000     -9.762000     -6.780000
H          -7.712000    -10.844000     -6.512000
H          -7.949000     -9.278000     -7.385000
C         -14.369000     -5.939000    -10.265000
C         -15.056000     -6.809000    -11.066000
N         -13.385000     -6.259000     -9.402000
C         -14.750000     -8.126000    -10.882000
C         -12.992000     -7.573000     -9.296000
C         -13.723000     -8.556000    -10.002000
C         -13.223000     -9.955000    -10.010000
C         -12.504000    -10.461000    -11.095000
C         -13.366000    -10.860000     -8.975000
N         -12.051000    -11.721000    -11.221000
N         -13.926000    -10.492000     -7.798000
C         -13.018000    -12.160000     -9.071000
C         -12.328000    -12.576000    -10.222000
S         -14.010000    -11.845000     -6.904000
N         -13.129000    -12.823000     -7.885000
C         -11.830000    -13.954000    -10.455000
S         -12.345000    -15.383000     -9.436000
C         -10.959000    -14.337000    -11.463000
C         -11.207000    -16.415000    -10.282000
S         -10.045000    -13.462000    -12.755000
C         -10.531000    -15.643000    -11.267000
C         -10.748000    -17.706000     -9.792000
C          -9.240000    -14.990000    -13.113000
C          -9.583000    -16.033000    -12.241000
N         -10.151000    -18.513000    -10.647000
S         -11.226000    -18.369000     -8.197000
C          -9.813000    -19.678000     -9.928000
C         -10.370000    -19.820000     -8.680000
C         -14.693000     -4.435000    -10.309000
H         -15.770000     -6.448000    -11.801000
H         -15.270000     -8.893000    -11.448000
H         -12.143000     -7.830000     -8.664000
H         -12.278000     -9.858000    -11.973000
H          -8.533000    -15.095000    -13.926000
H          -9.017000    -16.957000    -12.265000
H          -9.180000    -20.373000    -10.463000
H         -10.184000    -20.655000     -8.018000
H         -13.746000     -3.883000    -10.353000
C         -15.558000     -3.849000     -9.118000
H         -15.165000     -4.160000    -11.261000
H         -16.445000     -4.432000     -8.841000
H         -16.055000     -2.918000     -9.419000
C         -14.810000     -3.639000     -7.769000
H         -14.774000     -4.575000     -7.197000
C         -15.468000     -2.486000     -6.888000
H         -13.760000     -3.413000     -7.990000
H         -16.553000     -2.639000     -6.937000
H         -15.128000     -1.521000     -7.284000
C         -15.122000     -2.596000     -5.386000
H         -15.724000     -3.390000     -4.928000
C         -15.589000     -1.340000     -4.554000
H         -14.058000     -2.784000     -5.192000
H         -15.314000     -0.467000     -5.158000
H         -15.190000     -1.272000     -3.534000
H         -16.683000     -1.417000     -4.532000
$end

--------------------------------------------------------------

             Standard Nuclear Orientation (Angstroms)
    I     Atom           X                Y                Z
 ----------------------------------------------------------------
    1      C      -1.3453427853     3.3500204709     1.6817230941
    2      C      -0.4658656787     2.9388744562     2.6949170407
    3      N      -0.8986781039     3.2113867465     0.4087673396
    4      C       0.7929304359     2.3839284085     2.4565764730
    5      C       0.2721724963     2.5918350864     0.1138697091
    6      C       1.2067458260     2.1864144976     1.1292143981
    7      C       2.5600128567     1.6644500614     0.8114480203
    8      C       3.6732515426     2.0473556694     1.5718623308
    9      C       2.9257336606     0.8630934139    -0.3480246258
   10      N       4.9377324977     1.6544172834     1.3266515259
   11      N       2.0262346057     0.4299939685    -1.2450732982
   12      C       4.2044576356     0.4239604721    -0.5361635514
   13      C       5.2314705088     0.7989546103     0.3511897912
   14      S       2.8971129139    -0.4782379111    -2.2150134124
   15      N       4.3664789626    -0.5187271546    -1.5220905914
   16      C       6.6220034415     0.3304517157     0.2318197746
   17      S       7.5126991842     0.0820514598    -1.2178072143
   18      C       7.4034694389     0.2277776008     1.3500513789
   19      C       9.0286265690    -0.1608070117    -0.3420190396
   20      S       6.9233648917     0.3214177618     2.9903303625
   21      C       8.7137403688    -0.1131262944     1.0082347255
   22      C      10.3742797852    -0.0999917118    -0.8774636410
   23      C       8.6991129068    -0.0472002088     3.3071911819
   24      C       9.4906354415    -0.2044426633     2.1877534268
   25      N      11.3756086110    -0.0234417292    -0.0515709829
   26      S      10.6684943255     0.0681238416    -2.5604374866
   27      C      12.5639267916     0.1003492553    -0.8594779664
   28      C      12.3992833120     0.0717761959    -2.1716635878
   29      C      -2.6725977741     4.0345902994     1.9603632646
   30      H      -0.8231881504     3.1022192928     3.7070791402
   31      H       1.4005867231     2.0355468285     3.2860884447
   32      H       0.5868330611     2.7128706402    -0.9213955340
   33      H       3.4969538821     2.7229216406     2.4075888133
   34      H       8.9274138703    -0.0842610629     4.3638813745
   35      H      10.5410050247    -0.4587635949     2.2694455459
   36      H      13.5317213072     0.1445404587    -0.3772426368
   37      H      13.1405535574     0.0988608435    -2.9594204317
   38      H      -2.5248506935     5.0377799499     2.3797560701
   39      C      -3.5865886139     3.1859438799     2.8741433252
   40      H      -3.1387783891     4.1164612242     0.9709585012
   41      H      -4.6134682971     3.5719741375     2.8578719830
   42      H      -3.2474682994     3.2423103575     3.9161228032
   43      C      -3.5407297177     1.6961737608     2.4956305065
   44      H      -3.7959410152     1.5899850363     1.4342082774
   45      C      -4.5094134769     0.8125603936     3.2669360181
   46      H      -2.5256834235     1.2936040296     2.6056697363
   47      H      -4.5145796372    -0.1890817608     2.8184694025
   48      H      -5.5397385348     1.1866744170     3.2404601300
   49      C      -4.2776127317     0.5651974018     4.7556838022
   50      H      -4.2968122776     1.5013154078     5.3267183514
   51      C      -3.0070648800    -0.1893772541     5.0364581692
   52      H      -5.1020541107    -0.0345937971     5.1609700348
   53      H      -2.7718157420    -0.2294398126     6.1077330333
   54      H      -2.1388363895     0.2815358946     4.5583492958
   55      H      -3.1300904305    -1.2249315404     4.6948238121
   56      C      -5.1615527104    -6.5215975105    -0.6416742537
   57      C      -5.7174871349    -5.9230418879    -1.7385507656
   58      N      -4.4608450355    -5.9069595164     0.3312871487
   59      C      -5.4404715817    -4.5935986796    -1.8720578407
   60      C      -4.2761739029    -4.5455755991     0.2619228759
   61      C      -4.7182083872    -3.8617139522    -0.8939424980
   62      C      -4.6544455429    -2.3776027526    -0.9187063221
   63      C      -5.7859131793    -1.5996790569    -0.6640738195
   64      C      -3.5126634666    -1.6310327530    -1.1415648553
   65      N      -5.8449645594    -0.2568554605    -0.7090485187
   66      N      -2.3042714478    -2.2271427162    -1.2786584024
   67      C      -3.5186611165    -0.2900454583    -1.2900138495
   68      C      -4.7197519752     0.3964566717    -1.0449575809
   69      S      -1.2588361572    -1.0356527052    -1.6312454230
   70      N      -2.2633920296     0.2359024540    -1.3685269878
   71      C      -4.8777558883     1.8701350266    -1.1119192848
   72      S      -3.6229836300     2.9718190377    -1.8585556885
   73      C      -5.9760037336     2.5847768402    -0.6596663154
   74      C      -4.5362309416     4.3803012820    -1.3506766526
   75      S      -7.5055783665     2.1549770176     0.2040226072
   76      C      -5.7107572415     3.9473619798    -0.6752238182
   77      C      -3.9913086750     5.7271866408    -1.2705420551
   78      C      -7.8240825478     3.8844379488     0.3400114825
   79      C      -6.7890101241     4.6947569698    -0.1477283681
   80      N      -4.8410151024     6.7316247385    -1.1823032027
   81      S      -2.2698870676     6.1030990553    -1.5983766267
   82      C      -4.0651149406     7.9074956264    -1.1211755181
   83      C      -2.7286735907     7.7846376020    -1.4157046747
   84      C      -5.3203282742    -8.0379244480    -0.4307929147
   85      H      -6.3471280928    -6.4842992681    -2.4233021199
   86      H      -5.8093209196    -4.0412087691    -2.7310459388
   87      H      -3.7837627329    -4.0281272595     1.0841469667
   88      H      -6.7544109589    -2.0418063967    -0.4358097917
   89      H      -8.7343879724     4.2724224356     0.7789363872
   90      H      -6.8080869062     5.7606633850     0.0476880854
   91      H      -4.6219424080     8.8064979127    -0.8938496267
   92      H      -2.0191117380     8.6007513737    -1.3923532526
   93      H      -5.5998230206    -8.2095090733     0.6160549267
   94      C      -4.0680833577    -8.9476049368    -0.7691212719
   95      H      -6.1959044681    -8.4224112894    -0.9695407198
   96      H      -3.5684061249    -8.7357392334    -1.7224431413
   97      H      -4.3797104232    -9.9809567319    -0.9677255007
   98      C      -2.9114813057    -8.9331382690     0.2727364001
   99      H      -2.2507533009    -8.0729554701     0.1051056866
  100      C      -2.0654959736   -10.2831215153     0.2530373447
  101      H      -3.3446610712    -8.7560811279     1.2644132928
  102      H      -1.8980573845   -10.5289798595    -0.8026865745
  103      H      -2.6261904232   -11.0426845226     0.8118993777
  104      C      -0.6491394739   -10.1218577407     0.8494837052
  105      H      -0.0000898772    -9.6186880616     0.1227382924
  106      C       0.1022643489   -11.4969244459     1.0295749353
  107      H      -0.6315471281    -9.5721248898     1.7995154426
  108      H      -0.6389976612   -12.1850367966     1.4533697267
  109      H       1.0176612885   -11.4613469459     1.6337335938
  110      H       0.3318331405   -11.8199597501     0.0067380166
 ----------------------------------------------------------------

   10   -5663.5174031802      7.76E-06 Convergence criterion met
 Total energy in the final basis set = -5663.5174031802

                    Orbital Energies (a.u.)
 --------------------------------------------------------------

 Alpha MOs
 -- Occupied --
-88.993 -88.985 -88.926 -88.923 -88.922 -88.920 -88.912 -88.907
-14.396 -14.390 -14.379 -14.371 -14.349 -14.345 -14.342 -14.341
-14.330 -14.328 -10.268 -10.268 -10.262 -10.261 -10.258 -10.255
-10.245 -10.242 -10.241 -10.240 -10.239 -10.237 -10.234 -10.233
-10.231 -10.231 -10.230 -10.230 -10.229 -10.227 -10.227 -10.226
-10.226 -10.225 -10.225 -10.222 -10.222 -10.220 -10.214 -10.213
-10.212 -10.209 -10.206 -10.206 -10.199 -10.196 -10.195 -10.191
-10.187 -10.185 -10.182 -10.180 -10.176 -10.173 -10.170 -10.170
-10.169 -10.168 -10.168 -10.166  -8.049  -8.041  -7.986  -7.983
 -7.982  -7.980  -7.970  -7.967  -6.014  -6.009  -6.008  -6.005
 -6.000  -5.999  -5.950  -5.947  -5.947  -5.946  -5.945  -5.943
 -5.943  -5.942  -5.941  -5.940  -5.939  -5.937  -5.935  -5.932
 -5.931  -5.929  -5.926  -5.923  -1.059  -1.035  -0.968  -0.965
 -0.960  -0.959  -0.933  -0.932  -0.920  -0.914  -0.902  -0.893
 -0.843  -0.836  -0.834  -0.833  -0.812  -0.809  -0.807  -0.806
 -0.801  -0.797  -0.796  -0.789  -0.784  -0.778  -0.770  -0.759
 -0.753  -0.742  -0.742  -0.733  -0.721  -0.721  -0.711  -0.703
 -0.697  -0.686  -0.676  -0.669  -0.657  -0.651  -0.647  -0.641
 -0.637  -0.636  -0.628  -0.626  -0.618  -0.607  -0.601  -0.591
 -0.589  -0.585  -0.583  -0.579  -0.573  -0.570  -0.562  -0.553
 -0.547  -0.546  -0.544  -0.536  -0.528  -0.516  -0.512  -0.507
 -0.506  -0.504  -0.504  -0.491  -0.491  -0.490  -0.483  -0.475
 -0.473  -0.469  -0.467  -0.465  -0.461  -0.460  -0.453  -0.444
 -0.443  -0.436  -0.435  -0.434  -0.432  -0.431  -0.429  -0.427
 -0.425  -0.423  -0.421  -0.420  -0.416  -0.414  -0.412  -0.410
 -0.408  -0.406  -0.405  -0.404  -0.399  -0.397  -0.397  -0.395
 -0.392  -0.390  -0.387  -0.385  -0.384  -0.382  -0.380  -0.378
 -0.377  -0.373  -0.372  -0.369  -0.367  -0.360  -0.357  -0.357
 -0.352  -0.351  -0.351  -0.347  -0.344  -0.344  -0.341  -0.339
 -0.337  -0.337  -0.333  -0.333  -0.329  -0.326  -0.319  -0.312
 -0.311  -0.311  -0.309  -0.307  -0.302  -0.301  -0.299  -0.298
 -0.296  -0.295  -0.290  -0.288  -0.287  -0.283  -0.281  -0.278
 -0.277  -0.274  -0.270  -0.257  -0.256  -0.253  -0.250  -0.246
 -0.243  -0.240  -0.234  -0.231  -0.197  -0.190

          Ground-State Mulliken Net Atomic Charges

     Atom                 Charge (a.u.)
  ----------------------------------------
      1 C                     0.286610
      2 C                    -0.120264
      3 N                    -0.481727
      4 C                    -0.077052
      5 C                     0.096441
      6 C                     0.017938
      7 C                     0.055822
      8 C                     0.050034
      9 C                     0.207095
     10 N                    -0.513770
     11 N                    -0.527845
     12 C                     0.167489
     13 C                     0.271223
     14 S                     0.606533
     15 N                    -0.530016
     16 C                    -0.197430
     17 S                     0.314771
     18 C                    -0.078790
     19 C                    -0.242959
     20 S                     0.257956
     21 C                     0.139506
     22 C                     0.104556
     23 C                    -0.299884
     24 C                    -0.044587
     25 N                    -0.461832
     26 S                     0.247742
     27 C                     0.116816
     28 C                    -0.293367
     29 C                    -0.238642
     30 H                     0.085451
     31 H                     0.106080
     32 H                     0.112764
     33 H                     0.111330
     34 H                     0.121885
     35 H                     0.131111
     36 H                     0.112471
     37 H                     0.134437
     38 H                     0.113635
     39 C                    -0.189987
     40 H                     0.136229
     41 H                     0.107866
     42 H                     0.091966
     43 C                    -0.183304
     44 H                     0.109968
     45 C                    -0.175749
     46 H                     0.099063
     47 H                     0.081976
     48 H                     0.095659
     49 C                    -0.177939
     50 H                     0.085911
     51 C                    -0.312689
     52 H                     0.090945
     53 H                     0.094553
     54 H                     0.098625
     55 H                     0.100987
     56 C                     0.280443
     57 C                    -0.097012
     58 N                    -0.486252
     59 C                    -0.069075
     60 C                     0.097321
     61 C                     0.027835
     62 C                    -0.014126
     63 C                     0.060688
     64 C                     0.223501
     65 N                    -0.508181
     66 N                    -0.547434
     67 C                     0.212810
     68 C                     0.287058
     69 S                     0.612677
     70 N                    -0.539375
     71 C                    -0.248874
     72 S                     0.337472
     73 C                    -0.093883
     74 C                    -0.214485
     75 S                     0.285332
     76 C                     0.123655
     77 C                     0.046123
     78 C                    -0.312364
     79 C                    -0.054205
     80 N                    -0.416876
     81 S                     0.284537
     82 C                     0.110027
     83 C                    -0.308070
     84 C                    -0.232689
     85 H                     0.100117
     86 H                     0.095176
     87 H                     0.115285
     88 H                     0.108830
     89 H                     0.127058
     90 H                     0.121559
     91 H                     0.108979
     92 H                     0.133483
     93 H                     0.116397
     94 C                    -0.184355
     95 H                     0.086333
     96 H                     0.093586
     97 H                     0.092569
     98 C                    -0.172945
     99 H                     0.104721
    100 C                    -0.175142
    101 H                     0.098933
    102 H                     0.091169
    103 H                     0.093627
    104 C                    -0.188121
    105 H                     0.094545
    106 C                    -0.319552
    107 H                     0.094954
    108 H                     0.099027
    109 H                     0.101645
    110 H                     0.099931
  ----------------------------------------
  Sum of atomic charges =     0.000000

                    Cartesian Multipole Moments
 -----------------------------------------------------------------
    Charge (ESU x 10^10)
                 0.0000
    Dipole Moment (Debye)
         X       1.5306      Y       1.6756      Z      -0.4590
       Tot       2.3154
    Quadrupole Moments (Debye-Ang)
        XX    -413.6922     XY       6.2929     YY    -435.4986
        XZ     -13.6716     YZ      17.2704     ZZ    -428.6211

 Total job time:  106.92s(wall), 1186.45s(cpu)
        *  Thank you very much for using Q-Chem.  Have a nice day.  *
