 Q-Chem 4.4, Q-Chem, Inc., Pleasanton, CA (2016)
 Q-Chem 4.4.2 for Intel X86 Linux

User input:
--------------------------------------------------------------
$comment
SP
$end

$rem
MEM_STATIC 5000
MEM_TOTAL 20000
JOBTYPE SP
EXCHANGE B3LYP
BASIS 6-31g(d,p)
$end

$molecule
0 1
C         -12.874000    -26.371000      4.645000
C         -12.397000    -27.261000      3.624000
N         -13.254000    -25.105000      4.348000
C         -12.630000    -26.900000      2.257000
C         -13.379000    -24.749000      3.019000
C         -13.006000    -25.555000      1.936000
C         -13.107000    -25.142000      0.462000
C         -13.505000    -26.078000     -0.544000
C         -12.868000    -23.843000     -0.014000
N         -13.660000    -25.792000     -1.843000
N         -12.414000    -22.902000      0.803000
C         -12.913000    -23.533000     -1.388000
C         -13.396000    -24.543000     -2.294000
S         -12.457000    -21.612000     -0.186000
N         -12.715000    -22.232000     -1.666000
C         -13.640000    -24.430000     -3.745000
S         -14.860000    -25.286000     -4.740000
C         -12.854000    -23.665000     -4.591000
C         -14.271000    -24.643000     -6.203000
S         -11.360000    -22.846000     -4.301000
C         -13.186000    -23.862000     -5.937000
C         -14.578000    -25.102000     -7.544000
C         -11.319000    -22.536000     -6.055000
C         -12.271000    -23.154000     -6.791000
N         -15.478000    -26.065000     -7.658000
S         -13.817000    -24.678000     -9.064000
C         -15.504000    -26.537000     -8.926000
C         -14.766000    -25.854000     -9.805000
C         -12.689000    -26.680000      6.100000
H         -11.947000    -28.211000      3.897000
H         -12.348000    -27.642000      1.516000
H         -13.672000    -23.721000      2.810000
H         -13.758000    -27.105000     -0.285000
H         -10.559000    -21.869000     -6.440000
H         -12.393000    -23.074000     -7.865000
H         -16.198000    -27.314000     -9.219000
H         -14.728000    -26.102000    -10.858000
H         -13.478000    -27.374000      6.416000
C         -12.777000    -25.503000      7.066000
H         -11.717000    -27.142000      6.314000
H         -13.765000    -25.027000      7.063000
H         -12.143000    -24.728000      6.618000
C         -12.338000    -25.951000      8.447000
H         -13.042000    -26.696000      8.839000
C         -12.581000    -24.707000      9.290000
H         -11.362000    -26.419000      8.625000
H         -13.640000    -24.500000      9.489000
H         -12.145000    -23.819000      8.816000
C         -12.148000    -24.986000     10.758000
H         -12.785000    -25.762000     11.201000
C         -12.414000    -23.886000     11.813000
H         -11.144000    -25.421000     10.834000
H         -12.152000    -24.315000     12.788000
H         -13.482000    -23.688000     11.659000
H         -11.797000    -23.006000     11.595000
C         -14.369000     -5.939000    -10.265000
C         -15.056000     -6.809000    -11.066000
N         -13.385000     -6.259000     -9.402000
C         -14.750000     -8.126000    -10.882000
C         -12.992000     -7.573000     -9.296000
C         -13.723000     -8.556000    -10.002000
C         -13.223000     -9.955000    -10.010000
C         -12.504000    -10.461000    -11.095000
C         -13.366000    -10.860000     -8.975000
N         -12.051000    -11.721000    -11.221000
N         -13.926000    -10.492000     -7.798000
C         -13.018000    -12.160000     -9.071000
C         -12.328000    -12.576000    -10.222000
S         -14.010000    -11.845000     -6.904000
N         -13.129000    -12.823000     -7.885000
C         -11.830000    -13.954000    -10.455000
S         -12.345000    -15.383000     -9.436000
C         -10.959000    -14.337000    -11.463000
C         -11.207000    -16.415000    -10.282000
S         -10.045000    -13.462000    -12.755000
C         -10.531000    -15.643000    -11.267000
C         -10.748000    -17.706000     -9.792000
C          -9.240000    -14.990000    -13.113000
C          -9.583000    -16.033000    -12.241000
N         -10.151000    -18.513000    -10.647000
S         -11.226000    -18.369000     -8.197000
C          -9.813000    -19.678000     -9.928000
C         -10.370000    -19.820000     -8.680000
C         -14.693000     -4.435000    -10.309000
H         -15.770000     -6.448000    -11.801000
H         -15.270000     -8.893000    -11.448000
H         -12.143000     -7.830000     -8.664000
H         -12.278000     -9.858000    -11.973000
H          -8.533000    -15.095000    -13.926000
H          -9.017000    -16.957000    -12.265000
H          -9.180000    -20.373000    -10.463000
H         -10.184000    -20.655000     -8.018000
H         -13.746000     -3.883000    -10.353000
C         -15.558000     -3.849000     -9.118000
H         -15.165000     -4.160000    -11.261000
H         -16.445000     -4.432000     -8.841000
H         -16.055000     -2.918000     -9.419000
C         -14.810000     -3.639000     -7.769000
H         -14.774000     -4.575000     -7.197000
C         -15.468000     -2.486000     -6.888000
H         -13.760000     -3.413000     -7.990000
H         -16.553000     -2.639000     -6.937000
H         -15.128000     -1.521000     -7.284000
C         -15.122000     -2.596000     -5.386000
H         -15.724000     -3.390000     -4.928000
C         -15.589000     -1.340000     -4.554000
H         -14.058000     -2.784000     -5.192000
H         -15.314000     -0.467000     -5.158000
H         -15.190000     -1.272000     -3.534000
H         -16.683000     -1.417000     -4.532000
$end

--------------------------------------------------------------

             Standard Nuclear Orientation (Angstroms)
    I     Atom           X                Y                Z
 ----------------------------------------------------------------
    1      C      12.4561219497    -3.2269543498     0.1170218438
    2      C      12.6121760853    -1.8350930835     0.4339434782
    3      N      11.2399332708    -3.7449697715    -0.1794745643
    4      C      11.5291487714    -0.9504168969     0.1213752740
    5      C      10.1850869775    -2.8761521320    -0.3821003446
    6      C      10.2345426324    -1.4931326499    -0.1665423466
    7      C       9.0505355102    -0.5355129077    -0.3523851942
    8      C       9.2338967896     0.7703061832    -0.9071384211
    9      C       7.7183291373    -0.8554816896    -0.0458820806
   10      N       8.2529563863     1.6508623395    -1.1429323586
   11      N       7.4239690318    -2.0034817244     0.5495455375
   12      C       6.6771949349     0.0852483916    -0.1765246733
   13      C       6.9765905862     1.3416615922    -0.8137162561
   14      S       5.7995680028    -1.9318274667     0.5335154312
   15      N       5.4557216574    -0.4021381896     0.1055149565
   16      C       6.0486193401     2.4341093249    -1.1646198293
   17      S       6.1548371825     3.5918331583    -2.5282745860
   18      C       4.9544813388     2.7810110339    -0.3892113960
   19      C       4.8035112372     4.4889449633    -2.0088060123
   20      S       4.4812638500     2.2509281946     1.1862169241
   21      C       4.3388459240     3.9532994471    -0.8447132206
   22      C       4.4061034863     5.8084016058    -2.4608151360
   23      C       3.2246230541     3.5116256738     1.1101066366
   24      C       3.2896681365     4.3537366456     0.0534410091
   25      N       5.1109627353     6.3441821423    -3.4439110906
   26      S       3.2054719857     6.8957058815    -1.7933195092
   27      C       4.7720714885     7.6434871572    -3.6119682278
   28      C       3.7252498458     8.0582901647    -2.8937225085
   29      C      13.5458095199    -4.2183858619     0.3933831222
   30      H      13.5570534070    -1.4684824671     0.8242414448
   31      H      11.7197888791     0.1068304553     0.2796578872
   32      H       9.2162718377    -3.3212615248    -0.6047858924
   33      H      10.2186435013     1.1117309070    -1.2226096112
   34      H       2.4739830135     3.5348024688     1.8890266361
   35      H       2.6070598445     5.1710933107    -0.1483856535
   36      H       5.2264982408     8.2435245722    -4.3895705859
   37      H       3.3270679629     9.0625442152    -2.9621475779
   38      H      14.2784882170    -4.1732620538    -0.4221895409
   39      C      13.1314127610    -5.6835206588     0.4821770022
   40      H      14.0681342549    -4.0204522255     1.3378528924
   41      H      12.7179608536    -6.0634264138    -0.4598729633
   42      H      12.2534461076    -5.6844736077     1.1397928835
   43      C      14.2982545022    -6.5068385441     0.9932680026
   44      H      15.1180696949    -6.4851590272     0.2640642942
   45      C      13.7551972905    -7.9272186463     0.9236746825
   46      H      14.8049924641    -6.2756671108     1.9382867360
   47      H      13.6763198866    -8.3277367092    -0.0948019429
   48      H      12.7654069237    -7.9935489811     1.3918961220
   49      C      14.8331055516    -8.9179512391     1.4499034445
   50      H      15.7089668638    -8.9126932841     0.7888184912
   51      C      14.5288921697   -10.4324276231     1.3627455380
   52      H      15.2550455995    -8.6190239667     2.4171811098
   53      H      15.4440674469   -10.9553317945     1.6666130085
   54      H      14.2552707353   -10.5407591561     0.3058919106
   55      H      13.6960305406   -10.6825166731     2.0308847254
   56      C     -12.8584218412    -2.8007691189    -0.8839715655
   57      C     -12.6181820496    -1.7326319967    -1.7036287686
   58      N     -12.0810180868    -3.2116036018     0.1369512672
   59      C     -11.4264222812    -1.1019452732    -1.4940484471
   60      C     -10.9344486161    -2.5090247437     0.4268519347
   61      C     -10.5481670219    -1.4594441791    -0.4381643475
   62      C      -9.3947920893    -0.6034648728    -0.0583082012
   63      C      -9.5849537383     0.6507526044     0.5256430530
   64      C      -8.0637921684    -0.9519531799    -0.1913274116
   65      N      -8.6140709384     1.5189497833     0.8607628039
   66      N      -7.7044004135    -2.1849526589    -0.6213307271
   67      C      -7.0452295256    -0.0975682981     0.0386217491
   68      C      -7.3475696712     1.1562326573     0.5958744751
   69      S      -6.0854426608    -2.1578785833    -0.7443908324
   70      N      -5.8255839294    -0.7027181876    -0.0302566276
   71      C      -6.3401646983     2.1837327246     0.9571995810
   72      S      -4.5967413007     2.1026439279     0.4099094717
   73      C      -6.5838336417     3.3227824260     1.7085884441
   74      C      -4.2098031775     3.5075322199     1.3857945959
   75      S      -8.0205146189     3.9860094598     2.5840098691
   76      C      -5.3915809760     3.9513669039     2.0412310979
   77      C      -2.8609986899     3.8911977533     1.7743679000
   78      C      -6.9549595733     5.2355276309     3.2276477991
   79      C      -5.6083899663     5.0754179548     2.8712811548
   80      N      -2.6754376015     5.1142542208     2.2308577244
   81      S      -1.4153562344     2.9103436123     1.3742166220
   82      C      -1.3015760967     5.2258371794     2.5283200061
   83      C      -0.4833341756     4.2240932721     2.0647401287
   84      C     -14.1238166679    -3.6536933435    -1.0845312818
   85      H     -13.3501230305    -1.4186805241    -2.4425732005
   86      H     -11.1325839304    -0.2648946371    -2.1201876138
   87      H     -10.3437711975    -2.7824077638     1.3001422137
   88      H     -10.5767202430     1.0516226337     0.7287967379
   89      H      -7.3185851703     6.0392457470     3.8550684037
   90      H      -4.8522077655     5.6829491849     3.3548122122
   91      H      -1.0240161803     6.1283836945     3.0558702700
   92      H       0.5840414227     4.1779419329     2.2339866529
   93      H     -14.5810409832    -3.8223623622    -0.1017059221
   94      C     -13.9417834886    -5.0564003552    -1.7982391778
   95      H     -14.9041218009    -3.0863011973    -1.6078887619
   96      H     -13.3245547004    -5.0534987942    -2.7051058736
   97      H     -14.8881189445    -5.3947595819    -2.2390716160
   98      C     -13.3260624890    -6.1910272708    -0.9282308945
   99      H     -12.2306113694    -6.1236328451    -0.9236662587
  100      C     -13.7817746629    -7.6382396207    -1.4144785976
  101      H     -13.6150002209    -6.0188302976     0.1154549728
  102      H     -13.7079016676    -7.6354057567    -2.5088138980
  103      H     -14.7921654542    -7.8228009826    -1.0288770513
  104      C     -12.8248757087    -8.7623722983    -0.9578714201
  105      H     -11.9249152875    -8.7551679289    -1.5844680506
  106      C     -13.3889262332   -10.2061335730    -1.2498463978
  107      H     -12.5366591326    -8.6928089243     0.0990903305
  108      H     -14.4442762426   -10.1762359521    -0.9533459930
  109      H     -12.8525473539   -11.0316319210    -0.7650008809
  110      H     -13.3369497412   -10.3053226900    -2.3410425137
 ----------------------------------------------------------------

   10   -5663.4885947435      3.77E-06 Convergence criterion met
 Total energy in the final basis set = -5663.4885947435

                    Orbital Energies (a.u.)
 --------------------------------------------------------------

 Alpha MOs
 -- Occupied --
-88.991 -88.989 -88.930 -88.930 -88.929 -88.925 -88.916 -88.915
-14.398 -14.391 -14.386 -14.377 -14.351 -14.350 -14.348 -14.338
-14.334 -14.330 -10.275 -10.269 -10.267 -10.264 -10.263 -10.259
-10.251 -10.248 -10.247 -10.244 -10.241 -10.240 -10.237 -10.236
-10.235 -10.235 -10.234 -10.233 -10.233 -10.232 -10.231 -10.229
-10.228 -10.228 -10.225 -10.224 -10.220 -10.220 -10.219 -10.218
-10.215 -10.212 -10.211 -10.208 -10.207 -10.207 -10.197 -10.195
-10.187 -10.182 -10.182 -10.177 -10.175 -10.174 -10.173 -10.171
-10.171 -10.171 -10.170 -10.169  -8.047  -8.046  -7.992  -7.991
 -7.987  -7.984  -7.976  -7.975  -6.012  -6.011  -6.006  -6.005
 -6.005  -6.004  -5.956  -5.955  -5.952  -5.951  -5.951  -5.949
 -5.948  -5.948  -5.947  -5.944  -5.944  -5.941  -5.940  -5.939
 -5.937  -5.936  -5.932  -5.930  -1.057  -1.041  -0.978  -0.966
 -0.964  -0.958  -0.935  -0.931  -0.926  -0.920  -0.907  -0.899
 -0.854  -0.839  -0.838  -0.831  -0.817  -0.811  -0.811  -0.809
 -0.808  -0.799  -0.796  -0.792  -0.781  -0.780  -0.768  -0.763
 -0.752  -0.747  -0.746  -0.738  -0.728  -0.727  -0.714  -0.706
 -0.699  -0.689  -0.676  -0.675  -0.655  -0.654  -0.646  -0.641
 -0.640  -0.638  -0.631  -0.626  -0.612  -0.608  -0.598  -0.595
 -0.595  -0.589  -0.584  -0.579  -0.576  -0.574  -0.565  -0.563
 -0.553  -0.551  -0.544  -0.541  -0.527  -0.522  -0.522  -0.511
 -0.510  -0.509  -0.506  -0.497  -0.494  -0.486  -0.482  -0.478
 -0.478  -0.476  -0.472  -0.470  -0.465  -0.461  -0.452  -0.451
 -0.448  -0.442  -0.440  -0.437  -0.436  -0.433  -0.430  -0.430
 -0.426  -0.426  -0.425  -0.421  -0.419  -0.416  -0.416  -0.412
 -0.411  -0.409  -0.407  -0.406  -0.406  -0.402  -0.399  -0.398
 -0.393  -0.391  -0.389  -0.388  -0.386  -0.385  -0.381  -0.380
 -0.378  -0.376  -0.375  -0.369  -0.368  -0.365  -0.359  -0.356
 -0.356  -0.353  -0.352  -0.349  -0.347  -0.347  -0.345  -0.342
 -0.341  -0.339  -0.334  -0.333  -0.333  -0.321  -0.320  -0.317
 -0.313  -0.312  -0.311  -0.308  -0.307  -0.305  -0.302  -0.298
 -0.297  -0.296  -0.294  -0.289  -0.286  -0.286  -0.284  -0.282
 -0.282  -0.278  -0.265  -0.261  -0.257  -0.257  -0.253  -0.252
 -0.250  -0.247  -0.238  -0.236  -0.199  -0.195

          Ground-State Mulliken Net Atomic Charges

     Atom                 Charge (a.u.)
  ----------------------------------------
      1 C                     0.277316
      2 C                    -0.114621
      3 N                    -0.482926
      4 C                    -0.099268
      5 C                     0.076533
      6 C                     0.055669
      7 C                     0.032290
      8 C                     0.059425
      9 C                     0.186971
     10 N                    -0.489382
     11 N                    -0.517379
     12 C                     0.203622
     13 C                     0.241954
     14 S                     0.601032
     15 N                    -0.514439
     16 C                    -0.214505
     17 S                     0.350900
     18 C                    -0.101625
     19 C                    -0.195613
     20 S                     0.274941
     21 C                     0.095375
     22 C                     0.054928
     23 C                    -0.318693
     24 C                    -0.047429
     25 N                    -0.429825
     26 S                     0.282395
     27 C                     0.118072
     28 C                    -0.305350
     29 C                    -0.254554
     30 H                     0.095154
     31 H                     0.102714
     32 H                     0.114015
     33 H                     0.109779
     34 H                     0.114070
     35 H                     0.120094
     36 H                     0.111244
     37 H                     0.133102
     38 H                     0.113697
     39 C                    -0.168653
     40 H                     0.109245
     41 H                     0.112827
     42 H                     0.109310
     43 C                    -0.173509
     44 H                     0.093211
     45 C                    -0.166147
     46 H                     0.095116
     47 H                     0.093884
     48 H                     0.096193
     49 C                    -0.201241
     50 H                     0.089147
     51 C                    -0.311863
     52 H                     0.081730
     53 H                     0.101528
     54 H                     0.099880
     55 H                     0.101324
     56 C                     0.279948
     57 C                    -0.096691
     58 N                    -0.485429
     59 C                    -0.068678
     60 C                     0.098738
     61 C                     0.026050
     62 C                    -0.011552
     63 C                     0.061221
     64 C                     0.223738
     65 N                    -0.508463
     66 N                    -0.540890
     67 C                     0.211517
     68 C                     0.291626
     69 S                     0.610805
     70 N                    -0.544640
     71 C                    -0.241637
     72 S                     0.318246
     73 C                    -0.096479
     74 C                    -0.207847
     75 S                     0.290008
     76 C                     0.124757
     77 C                     0.051930
     78 C                    -0.310591
     79 C                    -0.051625
     80 N                    -0.414997
     81 S                     0.272767
     82 C                     0.112555
     83 C                    -0.304668
     84 C                    -0.232557
     85 H                     0.101196
     86 H                     0.095521
     87 H                     0.116105
     88 H                     0.111079
     89 H                     0.129760
     90 H                     0.123035
     91 H                     0.112701
     92 H                     0.122506
     93 H                     0.116928
     94 C                    -0.184613
     95 H                     0.086717
     96 H                     0.093766
     97 H                     0.093104
     98 C                    -0.172857
     99 H                     0.104439
    100 C                    -0.175244
    101 H                     0.099012
    102 H                     0.091351
    103 H                     0.093854
    104 C                    -0.187973
    105 H                     0.094344
    106 C                    -0.319273
    107 H                     0.094981
    108 H                     0.099159
    109 H                     0.101625
    110 H                     0.099953
  ----------------------------------------
  Sum of atomic charges =     0.000000

                    Cartesian Multipole Moments
 -----------------------------------------------------------------
    Charge (ESU x 10^10)
                 0.0000
    Dipole Moment (Debye)
         X       0.8069      Y       2.7360      Z       0.4764
       Tot       2.8920
    Quadrupole Moments (Debye-Ang)
        XX    -420.8559     XY      -7.2858     YY    -438.0059
        XZ      27.0626     YZ       9.4323     ZZ    -442.2863

 Total job time:  90.99s(wall), 958.91s(cpu)
        *  Thank you very much for using Q-Chem.  Have a nice day.  *
