 Q-Chem 4.4, Q-Chem, Inc., Pleasanton, CA (2016)
 Q-Chem 4.4.2 for Intel X86 Linux

User input:
--------------------------------------------------------------
$comment
SP
$end

$rem
MEM_STATIC 5000
MEM_TOTAL 20000
JOBTYPE SP
EXCHANGE B3LYP
BASIS 6-31g(d,p)
$end

$molecule
0 1
C          14.253000      8.128000     -3.465000
C          13.014000      8.702000     -3.215000
N          15.417000      8.775000     -3.470000
C          12.973000     10.111000     -3.189000
C          15.331000     10.146000     -3.430000
C          14.169000     10.900000     -3.285000
C          14.284000     12.406000     -3.402000
C          15.261000     13.020000     -4.135000
C          13.329000     13.231000     -2.784000
N          15.413000     14.341000     -4.160000
N          12.180000     12.806000     -2.190000
C          13.480000     14.620000     -2.848000
C          14.599000     15.189000     -3.507000
S          11.494000     14.180000     -1.562000
N          12.545000     15.275000     -2.108000
C          14.707000     16.588000     -3.813000
S          13.452000     17.960000     -3.590000
C          15.824000     17.175000     -4.393000
C          14.493000     19.092000     -4.493000
S          17.481000     16.427000     -4.554000
C          15.735000     18.470000     -4.687000
C          14.214000     20.458000     -4.928000
C          17.990000     17.948000     -5.346000
C          16.984000     18.875000     -5.384000
N          15.204000     21.277000     -5.154000
S          12.630000     21.163000     -4.936000
C          14.798000     22.595000     -5.140000
C          13.430000     22.719000     -5.121000
C          14.308000      6.675000     -3.827000
H          12.083000      8.143000     -3.232000
H          11.980000     10.551000     -3.187000
H          16.270000     10.681000     -3.562000
H          15.968000     12.519000     -4.795000
H          18.967000     18.056000     -5.798000
H          17.061000     19.889000     -5.760000
H          15.578000     23.343000     -5.193000
H          12.883000     23.653000     -5.135000
H          15.289000      6.445000     -4.262000
C          13.234000      6.154000     -4.758000
H          14.139000      6.075000     -2.925000
H          13.111000      6.953000     -5.500000
H          12.216000      6.071000     -4.356000
C          13.467000      4.692000     -5.237000
H          14.266000      4.177000     -4.691000
C          13.933000      4.666000     -6.710000
H          12.547000      4.125000     -5.051000
H          14.029000      3.603000     -6.963000
H          14.951000      5.074000     -6.721000
C          13.051000      5.237000     -7.873000
H          12.212000      4.532000     -7.846000
C          13.825000      5.443000     -9.159000
H          12.681000      6.235000     -7.605000
H          13.211000      5.847000     -9.973000
H          14.310000      4.474000     -9.328000
H          14.592000      6.204000     -8.968000
C          20.719000     17.532000     -2.250000
C          20.825000     18.754000     -2.942000
N          19.782000     17.347000     -1.258000
C          19.792000     19.652000     -2.828000
C          18.865000     18.272000     -1.023000
C          18.740000     19.392000     -1.889000
C          17.456000     20.166000     -1.877000
C          16.242000     19.455000     -1.676000
C          17.344000     21.609000     -2.140000
N          15.069000     20.089000     -1.366000
N          18.344000     22.451000     -2.486000
C          16.100000     22.165000     -1.897000
C          14.938000     21.399000     -1.519000
S          17.602000     23.925000     -2.614000
N          16.130000     23.517000     -2.043000
C          13.606000     22.032000     -1.229000
S          13.036000     23.596000     -1.829000
C          12.594000     21.465000     -0.528000
C          11.550000     23.590000     -0.948000
S          12.593000     20.046000      0.413000
C          11.430000     22.369000     -0.365000
C          10.540000     24.607000     -1.017000
C          10.931000     20.534000      1.069000
C          10.517000     21.781000      0.549000
N          10.809000     25.527000     -1.956000
S           8.953000     24.677000     -0.283000
C           9.623000     26.306000     -2.148000
C           8.579000     26.085000     -1.286000
C          21.675000     16.326000     -2.368000
H          21.591000     18.961000     -3.684000
H          19.764000     20.536000     -3.459000
H          18.116000     18.145000     -0.242000
H          16.260000     18.395000     -1.429000
H          10.514000     19.726000      1.654000
H           9.552000     22.163000      0.861000
H           9.701000     27.043000     -2.937000
H           7.605000     26.548000     -1.204000
H          22.684000     16.633000     -2.668000
C          21.216000     15.438000     -3.594000
H          21.758000     15.688000     -1.480000
H          20.131000     15.303000     -3.514000
H          21.583000     14.404000     -3.616000
C          21.580000     16.119000     -4.949000
H          20.769000     16.832000     -5.145000
C          21.679000     15.069000     -6.127000
H          22.546000     16.615000     -4.793000
H          20.773000     14.468000     -6.276000
H          22.503000     14.395000     -5.862000
C          22.042000     15.614000     -7.515000
H          21.118000     16.048000     -7.917000
C          22.560000     14.598000     -8.681000
H          22.720000     16.461000     -7.354000
H          23.430000     14.111000     -8.223000
H          22.838000     15.218000     -9.542000
H          21.878000     13.749000     -8.816000
$end

--------------------------------------------------------------

             Standard Nuclear Orientation (Angstroms)
    I     Atom           X                Y                Z
 ----------------------------------------------------------------
    1      C       8.8459085839     2.4080258926    -1.2975995418
    2      C       8.0635393303     3.5397406093    -1.1126207562
    3      N       8.3853162386     1.1700207342    -1.4670926660
    4      C       6.6939661786     3.3173574677    -0.8627145332
    5      C       7.0429233126     1.0009811542    -1.2261697476
    6      C       6.1216813208     2.0018864945    -0.9273609587
    7      C       4.7128616745     1.5805146571    -0.5631865791
    8      C       4.4237886769     0.3685964710    -0.0005987082
    9      C       3.6443027758     2.4732276734    -0.7524465865
   10      N       3.1774691189    -0.0329788900     0.2321990342
   11      N       3.7589501862     3.7835347070    -1.1040336298
   12      C       2.3411851983     2.0511818599    -0.4696393894
   13      C       2.0983795907     0.7280596662    -0.0217598325
   14      S       2.1964030698     4.3167959873    -1.2681522328
   15      N       1.4114774677     2.9836768500    -0.8116139923
   16      C       0.8347320639     0.2923655977     0.5034702188
   17      S      -0.7128056801     1.2820973281     0.8677448849
   18      C       0.5563178760    -1.0149848453     0.8802703772
   19      C      -1.4535178683    -0.1265228030     1.6725111742
   20      S       1.5442387208    -2.4943337832     0.4720876679
   21      C      -0.6372176545    -1.2397589709     1.4246337942
   22      C      -2.7098011689    -0.2137293096     2.4122200993
   23      C       0.3293890170    -3.4432624622     1.3795349442
   24      C      -0.6952410067    -2.6645098350     1.8448162141
   25      N      -3.3100475250    -1.3661342547     2.5288569470
   26      S      -3.6076615277     1.1669533089     2.9541677751
   27      C      -4.6399315373    -1.2245038053     2.8657624674
   28      C      -4.9539560787     0.0655558316     3.2183184497
   29      C      10.3363171820     2.5518940837    -1.2404842715
   30      H       8.4767213616     4.5332162437    -0.9649123513
   31      H       6.1313953269     4.1848046928    -0.5299949088
   32      H       6.6879006417    -0.0281756090    -1.2390250998
   33      H       5.1551666293    -0.3573856954     0.3522272895
   34      H       0.4640210833    -4.4977465523     1.5806182864
   35      H      -1.5762122777    -3.0127943658     2.3721571904
   36      H      -5.2403258890    -2.1246055681     2.8582498798
   37      H      -5.9269811989     0.4088793094     3.5455983073
   38      H      10.7933905916     1.5614226760    -1.1199177388
   39      C      10.9010468829     3.4752041186    -0.1820623592
   40      H      10.6857637677     3.0246994777    -2.1659609828
   41      H      10.2827926612     3.2791250923     0.7030414386
   42      H      10.7480017332     4.5532580591    -0.3206043509
   43      C      12.4515091175     3.4248201568    -0.0608092539
   44      H      12.9346509540     2.8771087658    -0.8783226776
   45      C      12.8766511087     2.6616522697     1.2137063653
   46      H      12.8277221209     4.4536677341    -0.1100173709
   47      H      13.9720773835     2.7161173044     1.2301026003
   48      H      12.6274677623     1.6074270020     1.0421670269
   49      C      12.4684452224     3.1432870736     2.6482550295
   50      H      13.0251129947     4.0860203969     2.7034806793
   51      C      12.6702466383     2.0821764176     3.7106242516
   52      H      11.3941557095     3.3667022265     2.6750078228
   53      H      12.3808082349     2.4152724249     4.7146563530
   54      H      13.7100399275     1.7648280838     3.5661702770
   55      H      11.9999745926     1.2453990945     3.4773216660
   56      C       0.4049918084    -5.2996014709    -2.3291039844
   57      C      -0.6004816644    -5.7841948851    -1.4702813494
   58      N       0.2272121195    -4.1507327447    -3.0671778507
   59      C      -1.6355155758    -4.9408636425    -1.1478124094
   60      C      -0.8452592630    -3.3971024264    -2.8839144420
   61      C      -1.7449364302    -3.6792774308    -1.8204581610
   62      C      -2.6721408674    -2.5944684248    -1.3607219844
   63      C      -2.2014337042    -1.2536092355    -1.3765144203
   64      C      -4.0185687855    -2.8185277620    -0.8121864115
   65      N      -3.0461110398    -0.1833336637    -1.2539770824
   66      N      -4.6122762205    -4.0111044789    -0.5799101621
   67      C      -4.7826918931    -1.6801426522    -0.6226706654
   68      C      -4.2920379494    -0.3399239679    -0.8299303720
   69      S      -6.1068992442    -3.6085018906     0.0062955807
   70      N      -6.0483069258    -1.9972776026    -0.2382698171
   71      C      -5.1533045854     0.8783611728    -0.6482325521
   72      S      -6.6033135570     0.9960566423     0.3590498107
   73      C      -4.9071107858     2.1078677625    -1.1627577303
   74      C      -7.0046686962     2.6121923688    -0.1007461937
   75      S      -3.7538556058     2.5837715735    -2.3214470987
   76      C      -5.9772939301     3.0861652713    -0.8523982260
   77      C      -8.1095378345     3.3709214046     0.4118398357
   78      C      -4.6045668569     4.2254582198    -2.4304394042
   79      C      -5.7455818397     4.2714641276    -1.5981093822
   80      N      -8.7450662727     2.7335981629     1.4070306164
   81      S      -8.5647202391     5.0371747812     0.1314228898
   82      C      -9.6170285597     3.6790524612     2.0363945332
   83      C      -9.7453969143     4.9087471667     1.4420936862
   84      C       1.7270727362    -6.0116708628    -2.6859725897
   85      H      -0.5245859927    -6.7188994124    -0.9218870626
   86      H      -2.3477493698    -5.2197326825    -0.3762191997
   87      H      -1.0047706916    -2.4853206523    -3.4586327214
   88      H      -1.2335571179    -1.0157344969    -1.8141941233
   89      H      -4.0169768066     4.9057992230    -3.0311490280
   90      H      -6.3189258450     5.1908911460    -1.5775276123
   91      H     -10.1368855369     3.2920656120     2.9034377282
   92      H     -10.3457032217     5.7711352831     1.6983905339
   93      H       1.6397636392    -7.1013059649    -2.5999350056
   94      C       2.7981599790    -5.6719016650    -1.5725858597
   95      H       2.1513647971    -5.7759279969    -3.6692724159
   96      H       2.7592122944    -4.5902519478    -1.3983246564
   97      H       3.8507316568    -5.8318307952    -1.8387522294
   98      C       2.5008741275    -6.4457679005    -0.2515884441
   99      H       1.7455672338    -5.8476115526     0.2739840816
  100      C       3.7947445369    -6.5988796909     0.6442023481
  101      H       2.1216354278    -7.4304023288    -0.5518900445
  102      H       4.2819276394    -5.6502256051     0.9029416958
  103      H       4.4985653596    -7.2017925189     0.0571679612
  104      C       3.6359043667    -7.3532021356     1.9712688309
  105      H       3.1806709499    -6.6389916645     2.6686940521
  106      C       4.9525282101    -7.9112016524     2.7556629884
  107      H       2.8772031875    -8.1276647266     1.8051537627
  108      H       5.4385867847    -8.5514253801     2.0088741021
  109      H       4.5896276085    -8.4831705790     3.6183099036
  110      H       5.7066824834    -7.1268463278     2.8977476703
 ----------------------------------------------------------------

    9   -5663.4793709557      8.20E-06 Convergence criterion met
 Total energy in the final basis set = -5663.4793709557

                    Orbital Energies (a.u.)
 --------------------------------------------------------------

 Alpha MOs
 -- Occupied --
-88.987 -88.987 -88.932 -88.929 -88.927 -88.915 -88.905 -88.903
-14.384 -14.384 -14.382 -14.378 -14.348 -14.348 -14.341 -14.340
-14.326 -14.326 -10.274 -10.271 -10.265 -10.259 -10.256 -10.253
-10.251 -10.250 -10.248 -10.243 -10.237 -10.237 -10.236 -10.236
-10.235 -10.235 -10.235 -10.234 -10.232 -10.231 -10.227 -10.227
-10.224 -10.223 -10.222 -10.221 -10.220 -10.219 -10.213 -10.212
-10.212 -10.211 -10.209 -10.206 -10.204 -10.198 -10.193 -10.192
-10.188 -10.184 -10.182 -10.180 -10.179 -10.179 -10.178 -10.177
-10.176 -10.175 -10.175 -10.172  -8.042  -8.042  -7.993  -7.988
 -7.986  -7.974  -7.965  -7.961  -6.007  -6.007  -6.002  -6.002
 -6.000  -6.000  -5.957  -5.954  -5.952  -5.950  -5.950  -5.949
 -5.947  -5.945  -5.942  -5.939  -5.935  -5.931  -5.929  -5.926
 -5.926  -5.922  -5.921  -5.917  -1.032  -1.032  -0.975  -0.960
 -0.960  -0.953  -0.934  -0.933  -0.908  -0.905  -0.896  -0.895
 -0.836  -0.830  -0.828  -0.823  -0.808  -0.806  -0.806  -0.804
 -0.803  -0.800  -0.795  -0.791  -0.783  -0.780  -0.769  -0.762
 -0.751  -0.748  -0.735  -0.732  -0.725  -0.712  -0.709  -0.706
 -0.691  -0.691  -0.672  -0.672  -0.651  -0.651  -0.645  -0.639
 -0.636  -0.632  -0.621  -0.618  -0.612  -0.609  -0.599  -0.598
 -0.593  -0.592  -0.581  -0.579  -0.575  -0.573  -0.567  -0.553
 -0.550  -0.541  -0.539  -0.538  -0.522  -0.520  -0.514  -0.508
 -0.505  -0.504  -0.502  -0.491  -0.485  -0.484  -0.477  -0.473
 -0.471  -0.470  -0.467  -0.465  -0.465  -0.463  -0.451  -0.448
 -0.446  -0.444  -0.438  -0.436  -0.435  -0.432  -0.432  -0.430
 -0.430  -0.424  -0.423  -0.422  -0.419  -0.418  -0.414  -0.410
 -0.409  -0.406  -0.404  -0.400  -0.398  -0.397  -0.396  -0.394
 -0.391  -0.390  -0.390  -0.386  -0.385  -0.383  -0.382  -0.380
 -0.377  -0.374  -0.373  -0.371  -0.368  -0.366  -0.352  -0.351
 -0.345  -0.343  -0.342  -0.342  -0.341  -0.340  -0.339  -0.338
 -0.338  -0.335  -0.329  -0.328  -0.326  -0.320  -0.319  -0.313
 -0.308  -0.308  -0.307  -0.307  -0.306  -0.302  -0.298  -0.295
 -0.295  -0.293  -0.292  -0.290  -0.286  -0.284  -0.279  -0.276
 -0.272  -0.268  -0.265  -0.262  -0.258  -0.254  -0.248  -0.246
 -0.244  -0.233  -0.230  -0.228  -0.196  -0.190

          Ground-State Mulliken Net Atomic Charges

     Atom                 Charge (a.u.)
  ----------------------------------------
      1 C                     0.276245
      2 C                    -0.101833
      3 N                    -0.494966
      4 C                    -0.081772
      5 C                     0.047505
      6 C                     0.063452
      7 C                     0.033463
      8 C                     0.053474
      9 C                     0.246227
     10 N                    -0.512897
     11 N                    -0.575007
     12 C                     0.164602
     13 C                     0.292059
     14 S                     0.604440
     15 N                    -0.541117
     16 C                    -0.209889
     17 S                     0.330672
     18 C                    -0.121424
     19 C                    -0.220538
     20 S                     0.277421
     21 C                     0.152098
     22 C                     0.068421
     23 C                    -0.303369
     24 C                    -0.058803
     25 N                    -0.435918
     26 S                     0.275847
     27 C                     0.122870
     28 C                    -0.308908
     29 C                    -0.223740
     30 H                     0.096824
     31 H                     0.115320
     32 H                     0.096351
     33 H                     0.122657
     34 H                     0.130430
     35 H                     0.118670
     36 H                     0.119267
     37 H                     0.146488
     38 H                     0.117149
     39 C                    -0.182195
     40 H                     0.111547
     41 H                     0.100588
     42 H                     0.086957
     43 C                    -0.198529
     44 H                     0.101936
     45 C                    -0.177636
     46 H                     0.089517
     47 H                     0.083545
     48 H                     0.090371
     49 C                    -0.170839
     50 H                     0.090725
     51 C                    -0.310316
     52 H                     0.089949
     53 H                     0.103270
     54 H                     0.102990
     55 H                     0.107762
     56 C                     0.270210
     57 C                    -0.126370
     58 N                    -0.477163
     59 C                    -0.051176
     60 C                     0.084330
     61 C                     0.028229
     62 C                     0.006395
     63 C                     0.048171
     64 C                     0.265343
     65 N                    -0.515040
     66 N                    -0.572746
     67 C                     0.208259
     68 C                     0.315820
     69 S                     0.591321
     70 N                    -0.556916
     71 C                    -0.215037
     72 S                     0.346168
     73 C                    -0.104286
     74 C                    -0.212063
     75 S                     0.265855
     76 C                     0.116945
     77 C                     0.064833
     78 C                    -0.302352
     79 C                    -0.094389
     80 N                    -0.436736
     81 S                     0.277421
     82 C                     0.110346
     83 C                    -0.308903
     84 C                    -0.223235
     85 H                     0.094208
     86 H                     0.120978
     87 H                     0.108066
     88 H                     0.125075
     89 H                     0.137828
     90 H                     0.115258
     91 H                     0.114765
     92 H                     0.143809
     93 H                     0.097376
     94 C                    -0.202891
     95 H                     0.121887
     96 H                     0.123543
     97 H                     0.094195
     98 C                    -0.183934
     99 H                     0.098048
    100 C                    -0.181453
    101 H                     0.089816
    102 H                     0.099233
    103 H                     0.089443
    104 C                    -0.189843
    105 H                     0.090732
    106 C                    -0.325780
    107 H                     0.086904
    108 H                     0.104514
    109 H                     0.113036
    110 H                     0.110544
  ----------------------------------------
  Sum of atomic charges =     0.000000

                    Cartesian Multipole Moments
 -----------------------------------------------------------------
    Charge (ESU x 10^10)
                 0.0000
    Dipole Moment (Debye)
         X      -3.0235      Y       3.1577      Z       2.4817
       Tot       5.0270
    Quadrupole Moments (Debye-Ang)
        XX    -420.0924     XY      -5.5090     YY    -397.5646
        XZ     -11.6702     YZ      -8.0808     ZZ    -451.3223

 Total job time:  118.15s(wall), 1108.72s(cpu)
        *  Thank you very much for using Q-Chem.  Have a nice day.  *
