 Q-Chem 4.4, Q-Chem, Inc., Pleasanton, CA (2016)
 Q-Chem 4.4.2 for Intel X86 Linux

User input:
--------------------------------------------------------------
$comment
SP
$end

$rem
MEM_STATIC 5000
MEM_TOTAL 20000
JOBTYPE SP
EXCHANGE B3LYP
BASIS 6-31g(d,p)
$end

$molecule
0 1
C          27.326000     30.690000      0.488000
C          25.995000     30.573000      1.046000
N          27.772000     29.932000     -0.494000
C          25.102000     29.674000      0.466000
C          26.872000     29.102000     -1.078000
C          25.502000     28.902000     -0.641000
C          24.556000     27.939000     -1.386000
C          25.082000     26.839000     -2.117000
C          23.099000     28.042000     -1.451000
N          24.350000     25.985000     -2.832000
N          22.370000     29.043000     -0.894000
C          22.375000     27.130000     -2.234000
C          23.017000     26.163000     -3.012000
S          20.856000     28.796000     -1.391000
N          21.060000     27.459000     -2.378000
C          22.313000     25.174000     -3.895000
S          20.591000     25.142000     -4.109000
C          22.872000     24.090000     -4.585000
C          20.707000     23.797000     -5.286000
S          24.564000     23.510000     -4.574000
C          21.968000     23.317000     -5.348000
C          19.644000     23.346000     -6.033000
C          24.088000     22.155000     -5.649000
C          22.648000     22.183000     -5.877000
N          18.879000     24.239000     -6.544000
S          19.247000     21.715000     -6.430000
C          17.745000     23.670000     -7.060000
C          17.770000     22.306000     -7.135000
C          28.464000     31.572000      1.074000
H          25.668000     31.196000      1.873000
H          24.112000     29.558000      0.897000
H          27.294000     28.560000     -1.924000
H          26.147000     26.616000     -2.072000
H          24.855000     21.454000     -5.951000
H          22.188000     21.487000     -6.569000
H          16.931000     24.284000     -7.423000
H          17.046000     21.541000     -7.383000
H          29.178000     31.964000      0.339000
C          29.126000     30.814000      2.201000
H          28.006000     32.452000      1.541000
H          29.186000     29.742000      1.979000
H          28.446000     30.822000      3.061000
C          30.585000     31.311000      2.418000
H          31.412000     30.848000      1.866000
C          31.086000     30.997000      3.831000
H          30.487000     32.381000      2.198000
H          30.918000     29.917000      3.920000
H          30.598000     31.582000      4.621000
C          32.635000     31.220000      3.941000
H          33.073000     30.648000      3.114000
C          33.101000     30.535000      5.286000
H          32.851000     32.286000      3.797000
H          32.672000     31.067000      6.145000
H          34.193000     30.614000      5.352000
H          32.890000     29.462000      5.371000
C          20.719000     17.532000     -2.250000
C          20.825000     18.754000     -2.942000
N          19.782000     17.347000     -1.258000
C          19.792000     19.652000     -2.828000
C          18.865000     18.272000     -1.023000
C          18.740000     19.392000     -1.889000
C          17.456000     20.166000     -1.877000
C          16.242000     19.455000     -1.676000
C          17.344000     21.609000     -2.140000
N          15.069000     20.089000     -1.366000
N          18.344000     22.451000     -2.486000
C          16.100000     22.165000     -1.897000
C          14.938000     21.399000     -1.519000
S          17.602000     23.925000     -2.614000
N          16.130000     23.517000     -2.043000
C          13.606000     22.032000     -1.229000
S          13.036000     23.596000     -1.829000
C          12.594000     21.465000     -0.528000
C          11.550000     23.590000     -0.948000
S          12.593000     20.046000      0.413000
C          11.430000     22.369000     -0.365000
C          10.540000     24.607000     -1.017000
C          10.931000     20.534000      1.069000
C          10.517000     21.781000      0.549000
N          10.809000     25.527000     -1.956000
S           8.953000     24.677000     -0.283000
C           9.623000     26.306000     -2.148000
C           8.579000     26.085000     -1.286000
C          21.675000     16.326000     -2.368000
H          21.591000     18.961000     -3.684000
H          19.764000     20.536000     -3.459000
H          18.116000     18.145000     -0.242000
H          16.260000     18.395000     -1.429000
H          10.514000     19.726000      1.654000
H           9.552000     22.163000      0.861000
H           9.701000     27.043000     -2.937000
H           7.605000     26.548000     -1.204000
H          22.684000     16.633000     -2.668000
C          21.216000     15.438000     -3.594000
H          21.758000     15.688000     -1.480000
H          20.131000     15.303000     -3.514000
H          21.583000     14.404000     -3.616000
C          21.580000     16.119000     -4.949000
H          20.769000     16.832000     -5.145000
C          21.679000     15.069000     -6.127000
H          22.546000     16.615000     -4.793000
H          20.773000     14.468000     -6.276000
H          22.503000     14.395000     -5.862000
C          22.042000     15.614000     -7.515000
H          21.118000     16.048000     -7.917000
C          22.560000     14.598000     -8.681000
H          22.720000     16.461000     -7.354000
H          23.430000     14.111000     -8.223000
H          22.838000     15.218000     -9.542000
H          21.878000     13.749000     -8.816000
$end

--------------------------------------------------------------

             Standard Nuclear Orientation (Angstroms)
    I     Atom           X                Y                Z
 ----------------------------------------------------------------
    1      C      10.1530434612     2.4933226029    -0.2040607488
    2      C       9.0491570988     3.3370653412     0.2035506966
    3      N      10.0005942984     1.2645661171    -0.6565215221
    4      C       7.7482828103     2.8673037228     0.0329631608
    5      C       8.7268280724     0.8469760716    -0.8641128405
    6      C       7.5288134623     1.5945252582    -0.5267699769
    7      C       6.1238057510     1.0294594061    -0.8165352510
    8      C       5.9142270661    -0.3752536989    -0.8789441229
    9      C       4.9160974185     1.8133515690    -1.0707726608
   10      N       4.7507492765    -0.9553529156    -1.1724902554
   11      N       4.8745069090     3.1690640117    -1.1340577460
   12      C       3.7197757525     1.1557310374    -1.3953627221
   13      C       3.6667698106    -0.2319797577    -1.5502372501
   14      S       3.3748770665     3.5286079193    -1.6052822297
   15      N       2.7310864725     1.9968351969    -1.8115829768
   16      C       2.4332571706    -1.0017105676    -1.9235829977
   17      S       0.9078439354    -0.2503071884    -2.2708745515
   18      C       2.2665777505    -2.3927192244    -1.9544032455
   19      C       0.1532035219    -1.8301219803    -2.6483835843
   20      S       3.4330577993    -3.6691259761    -1.4966968984
   21      C       0.9875099458    -2.8483633874    -2.3459232930
   22      C      -1.1017451763    -1.9624510543    -3.1951667050
   23      C       2.1836915393    -4.9096947046    -1.8406433742
   24      C       0.9267247314    -4.2637056346    -2.1999490454
   25      N      -1.4046322866    -1.1552747965    -4.1441244951
   26      S      -2.3057817278    -3.1351790450    -2.8073728909
   27      C      -2.7396875316    -1.2323980207    -4.4401861462
   28      C      -3.3982468807    -2.2766558435    -3.8548903379
   29      C      11.6563349944     2.8292519021     0.0048173785
   30      H       9.2116363959     4.3360178441     0.5968462279
   31      H       6.9156851997     3.4809839192     0.3638631988
   32      H       8.6821540879    -0.1495658241    -1.3028297027
   33      H       6.7243042722    -1.0573945268    -0.6250980850
   34      H       2.4470319338    -5.9488355373    -1.6932250362
   35      H       0.0772436670    -4.8555963800    -2.5207718419
   36      H      -3.1964388802    -0.5367942284    -5.1321937833
   37      H      -4.4336527790    -2.5824308047    -3.7818061477
   38      H      12.3371587544     2.4183766119    -0.7510566214
   39      C      12.0395614951     2.4543344334     1.4174430688
   40      H      11.7725597497     3.9180665741    -0.0519929754
   41      H      11.5294093301     1.5387050776     1.7390572032
   42      H      11.6043780859     3.1975488797     2.0959058071
   43      C      13.5678783933     2.1775648956     1.5195463575
   44      H      13.9574717092     1.1678556884     1.3414835451
   45      C      14.0781195009     2.3395029733     2.9546756448
   46      H      13.9710086856     2.9091028512     0.8087424556
   47      H      13.4205919793     1.6756023530     3.5286429998
   48      H      14.0780212293     3.3753502319     3.3172903813
   49      C      15.5316025030     1.7679134647     3.1026709029
   50      H      15.4891049463     0.7500070577     2.6964474372
   51      C      15.8190187242     1.6452581958     4.6511390494
   52      H      16.2142231416     2.3721343933     2.4921841027
   53      H      15.8549687044     2.6439729534     5.1052562499
   54      H      16.8034894367     1.1798454285     4.7825520335
   55      H      15.1274402141     1.0064371672     5.2139017507
   56      C      -2.3974261515    -5.0303700271     2.9837000185
   57      C      -1.8237755308    -4.5066463737     1.8089564293
   58      N      -3.1251135693    -4.2377596757     3.8430589963
   59      C      -2.2496956671    -3.2745480732     1.3765043334
   60      C      -3.4183918305    -2.9894303630     3.5153384011
   61      C      -3.1213485955    -2.5027131834     2.2134733145
   62      C      -3.8397886987    -1.2806872361     1.7252393519
   63      C      -5.1935695621    -1.0936118098     2.1151087646
   64      C      -3.2732637232    -0.2889643563     0.7981486434
   65      N      -5.8359331559     0.1059159573     1.9651516067
   66      N      -2.0626928134    -0.3380487818     0.1974916768
   67      C      -4.0257220359     0.8589048723     0.6194765365
   68      C      -5.3324636170     1.0602614442     1.1954678308
   69      S      -1.9978723028     1.0572262344    -0.6905567063
   70      N      -3.3627070089     1.7655778145    -0.1476448684
   71      C      -6.1147589026     2.3304890982     1.0123045341
   72      S      -5.9371528129     3.4888310111    -0.3134767788
   73      C      -7.1419859635     2.7488758729     1.7912724872
   74      C      -7.0656913475     4.6398048351     0.3078548819
   75      S      -7.6807396157     2.1416360405     3.2879512397
   76      C      -7.6689662590     4.0741204048     1.3854403803
   77      C      -7.4441239595     5.8636743408    -0.3387378733
   78      C      -8.7556248478     3.6402255239     3.4599259415
   79      C      -8.5862928196     4.5242764484     2.3706208296
   80      N      -6.9198002562     5.9711703317    -1.5691895246
   81      S      -8.6463833815     7.0542529300     0.1077147054
   82      C      -7.5858269204     7.0540179631    -2.2280904957
   83      C      -8.4443526340     7.8151455526    -1.4761334546
   84      C      -2.1888120559    -6.4504834785     3.5511979871
   85      H      -1.1901317262    -5.0823364690     1.1401923132
   86      H      -1.9460175610    -2.9022040883     0.4020606127
   87      H      -3.9918471527    -2.3460463167     4.1818944470
   88      H      -5.6558017113    -1.7649692689     2.8366027717
   89      H      -9.4107157112     3.5279246252     4.3126993399
   90      H      -9.1735788940     5.4350649223     2.3633804801
   91      H      -7.2896189354     7.1930006786    -3.2599425367
   92      H      -9.0379582042     8.6846675435    -1.7237883239
   93      H      -1.2246936202    -6.8743007309     3.2459364951
   94      C      -3.2202077080    -7.4271729927     2.8550646655
   95      H      -2.2822798163    -6.5534402289     4.6389206931
   96      H      -4.2018077294    -6.9395678135     2.8785718415
   97      H      -3.4156855654    -8.3792256562     3.3646852433
   98      C      -2.8007019888    -7.7325750596     1.3843415341
   99      H      -3.1786634383    -6.8898268732     0.7915290536
  100      C      -3.4257007168    -9.0885335721     0.8640165373
  101      H      -1.7050649684    -7.7881320422     1.3833714084
  102      H      -4.5201918233    -9.1369558673     0.9271235818
  103      H      -3.0060493362    -9.8778369774     1.4999173575
  104      C      -3.0790925457    -9.5079426242    -0.5710084878
  105      H      -3.7245834145    -8.9060275448    -1.2227567333
  106      C      -3.3267616361   -11.0458692665    -1.0543072200
  107      H      -2.0574081843    -9.1586395262    -0.7637840342
  108      H      -2.7441211582   -11.6335969487    -0.3339328415
  109      H      -2.9285685832   -11.1266620256    -2.0730907214
  110      H      -4.3485247673   -11.3827323923    -0.8382670892
 ----------------------------------------------------------------

    9   -5663.4913645614      8.41E-06 Convergence criterion met
 Total energy in the final basis set = -5663.4913645614

                    Orbital Energies (a.u.)
 --------------------------------------------------------------

 Alpha MOs
 -- Occupied --
-88.993 -88.986 -88.930 -88.926 -88.925 -88.914 -88.913 -88.905
-14.393 -14.391 -14.383 -14.382 -14.351 -14.349 -14.345 -14.338
-14.331 -14.329 -10.271 -10.267 -10.266 -10.266 -10.258 -10.258
-10.257 -10.253 -10.245 -10.242 -10.242 -10.239 -10.237 -10.237
-10.235 -10.235 -10.235 -10.235 -10.234 -10.234 -10.233 -10.233
-10.233 -10.231 -10.230 -10.230 -10.227 -10.226 -10.226 -10.216
-10.214 -10.212 -10.212 -10.211 -10.211 -10.208 -10.205 -10.200
-10.190 -10.185 -10.183 -10.183 -10.182 -10.182 -10.181 -10.181
-10.178 -10.176 -10.175 -10.173  -8.048  -8.041  -7.991  -7.987
 -7.985  -7.973  -7.972  -7.965  -6.013  -6.007  -6.006  -6.006
 -6.000  -5.998  -5.955  -5.952  -5.951  -5.949  -5.948  -5.948
 -5.946  -5.944  -5.942  -5.938  -5.936  -5.934  -5.933  -5.930
 -5.929  -5.929  -5.926  -5.921  -1.038  -1.031  -0.987  -0.959
 -0.957  -0.954  -0.943  -0.936  -0.913  -0.907  -0.905  -0.895
 -0.839  -0.835  -0.828  -0.825  -0.812  -0.810  -0.806  -0.805
 -0.803  -0.802  -0.801  -0.796  -0.782  -0.781  -0.771  -0.764
 -0.750  -0.747  -0.739  -0.737  -0.721  -0.711  -0.708  -0.707
 -0.694  -0.692  -0.678  -0.672  -0.652  -0.651  -0.643  -0.641
 -0.634  -0.632  -0.627  -0.620  -0.613  -0.609  -0.604  -0.598
 -0.598  -0.592  -0.587  -0.580  -0.579  -0.576  -0.570  -0.569
 -0.548  -0.540  -0.540  -0.538  -0.526  -0.521  -0.521  -0.514
 -0.507  -0.506  -0.502  -0.502  -0.487  -0.486  -0.479  -0.474
 -0.474  -0.472  -0.471  -0.465  -0.465  -0.464  -0.454  -0.450
 -0.447  -0.443  -0.441  -0.437  -0.436  -0.436  -0.433  -0.431
 -0.430  -0.429  -0.425  -0.421  -0.419  -0.419  -0.416  -0.412
 -0.412  -0.407  -0.406  -0.401  -0.400  -0.399  -0.398  -0.396
 -0.395  -0.393  -0.391  -0.388  -0.387  -0.385  -0.383  -0.377
 -0.376  -0.375  -0.374  -0.373  -0.369  -0.361  -0.358  -0.354
 -0.353  -0.350  -0.348  -0.347  -0.345  -0.344  -0.342  -0.341
 -0.339  -0.336  -0.332  -0.329  -0.326  -0.324  -0.322  -0.319
 -0.318  -0.314  -0.310  -0.306  -0.306  -0.305  -0.304  -0.300
 -0.296  -0.296  -0.294  -0.290  -0.286  -0.286  -0.284  -0.280
 -0.273  -0.271  -0.268  -0.263  -0.256  -0.256  -0.255  -0.248
 -0.245  -0.236  -0.232  -0.229  -0.198  -0.196

          Ground-State Mulliken Net Atomic Charges

     Atom                 Charge (a.u.)
  ----------------------------------------
      1 C                     0.244605
      2 C                    -0.124842
      3 N                    -0.454525
      4 C                    -0.067760
      5 C                     0.058706
      6 C                     0.036579
      7 C                     0.043450
      8 C                     0.059453
      9 C                     0.208987
     10 N                    -0.518694
     11 N                    -0.542462
     12 C                     0.201339
     13 C                     0.316183
     14 S                     0.610972
     15 N                    -0.557649
     16 C                    -0.223807
     17 S                     0.363095
     18 C                    -0.145859
     19 C                    -0.227778
     20 S                     0.289404
     21 C                     0.210074
     22 C                     0.021415
     23 C                    -0.300712
     24 C                    -0.120303
     25 N                    -0.406053
     26 S                     0.254310
     27 C                     0.111780
     28 C                    -0.303484
     29 C                    -0.221657
     30 H                     0.094412
     31 H                     0.118005
     32 H                     0.101504
     33 H                     0.117465
     34 H                     0.140603
     35 H                     0.107402
     36 H                     0.116829
     37 H                     0.143011
     38 H                     0.119618
     39 C                    -0.169733
     40 H                     0.091912
     41 H                     0.107147
     42 H                     0.095080
     43 C                    -0.178140
     44 H                     0.099004
     45 C                    -0.172153
     46 H                     0.088999
     47 H                     0.093822
     48 H                     0.088767
     49 C                    -0.187821
     50 H                     0.092524
     51 C                    -0.320494
     52 H                     0.099274
     53 H                     0.104180
     54 H                     0.096783
     55 H                     0.106773
     56 C                     0.265661
     57 C                    -0.121202
     58 N                    -0.477871
     59 C                    -0.064422
     60 C                     0.080427
     61 C                     0.022006
     62 C                     0.004114
     63 C                     0.034746
     64 C                     0.249896
     65 N                    -0.512651
     66 N                    -0.575145
     67 C                     0.192671
     68 C                     0.314416
     69 S                     0.625398
     70 N                    -0.548650
     71 C                    -0.215012
     72 S                     0.349633
     73 C                    -0.101724
     74 C                    -0.208112
     75 S                     0.258314
     76 C                     0.118170
     77 C                     0.065332
     78 C                    -0.303755
     79 C                    -0.092657
     80 N                    -0.430690
     81 S                     0.276210
     82 C                     0.111686
     83 C                    -0.309811
     84 C                    -0.223970
     85 H                     0.099113
     86 H                     0.133542
     87 H                     0.109310
     88 H                     0.117102
     89 H                     0.138541
     90 H                     0.115728
     91 H                     0.116242
     92 H                     0.143455
     93 H                     0.099060
     94 C                    -0.191501
     95 H                     0.121655
     96 H                     0.107003
     97 H                     0.093328
     98 C                    -0.178348
     99 H                     0.101907
    100 C                    -0.179937
    101 H                     0.088611
    102 H                     0.094040
    103 H                     0.088633
    104 C                    -0.188119
    105 H                     0.090131
    106 C                    -0.325836
    107 H                     0.086514
    108 H                     0.104675
    109 H                     0.113150
    110 H                     0.109448
  ----------------------------------------
  Sum of atomic charges =     0.000000

                    Cartesian Multipole Moments
 -----------------------------------------------------------------
    Charge (ESU x 10^10)
                 0.0000
    Dipole Moment (Debye)
         X      -1.7573      Y       1.6056      Z      -0.3014
       Tot       2.3994
    Quadrupole Moments (Debye-Ang)
        XX    -420.1378     XY     -10.9062     YY    -396.5859
        XZ      16.8081     YZ       5.4543     ZZ    -453.7756

 Total job time:  86.09s(wall), 932.08s(cpu)
        *  Thank you very much for using Q-Chem.  Have a nice day.  *
