 Q-Chem 4.4, Q-Chem, Inc., Pleasanton, CA (2016)
 Q-Chem 4.4.2 for Intel X86 Linux

User input:
--------------------------------------------------------------
$comment
SP
$end

$rem
MEM_STATIC 5000
MEM_TOTAL 20000
JOBTYPE SP
EXCHANGE B3LYP
BASIS 6-31g(d,p)
$end

$molecule
0 1
C          24.007000     22.007000     -1.331000
C          24.077000     23.260000     -0.668000
N          22.866000     21.323000     -1.517000
C          22.898000     23.819000     -0.150000
C          21.759000     21.825000     -0.908000
C          21.682000     23.063000     -0.295000
C          20.350000     23.640000      0.173000
C          20.253000     25.020000      0.112000
C          19.194000     22.993000      0.593000
N          19.096000     25.743000      0.325000
N          19.083000     21.674000      0.663000
C          18.027000     23.707000      0.895000
C          17.990000     25.145000      0.849000
S          17.655000     21.440000      1.440000
N          16.988000     22.922000      1.290000
C          16.751000     25.917000      1.102000
S          15.078000     25.274000      1.327000
C          16.758000     27.287000      1.419000
C          14.434000     26.905000      1.553000
S          18.116000     28.386000      1.788000
C          15.443000     27.821000      1.652000
C          13.069000     27.221000      1.604000
C          16.922000     29.609000      1.948000
C          15.560000     29.193000      1.950000
N          12.719000     28.472000      1.819000
S          11.844000     26.007000      1.563000
C          11.357000     28.556000      1.912000
C          10.705000     27.315000      1.750000
C          25.225000     21.228000     -1.767000
H          25.034000     23.712000     -0.424000
H          22.960000     24.695000      0.489000
H          20.862000     21.215000     -1.003000
H          21.118000     25.635000     -0.135000
H          17.433000     30.534000      2.181000
H          14.728000     29.868000      2.118000
H          10.945000     29.546000      2.055000
H           9.659000     27.124000      1.549000
H          25.971000     21.881000     -2.236000
C          24.893000     19.893000     -2.555000
H          25.717000     20.841000     -0.866000
H          24.232000     20.008000     -3.423000
H          24.394000     19.155000     -1.915000
C          26.193000     19.229000     -2.974000
H          26.814000     19.856000     -3.625000
C          25.949000     17.847000     -3.592000
H          26.847000     19.072000     -2.108000
H          25.173000     17.399000     -2.959000
H          26.828000     17.197000     -3.685000
C          25.382000     17.992000     -5.086000
H          24.314000     18.222000     -4.992000
C          25.479000     16.730000     -5.898000
H          25.816000     18.856000     -5.605000
H          26.464000     16.264000     -6.027000
H          25.043000     16.832000     -6.899000
H          24.805000     16.006000     -5.424000
C          20.719000     17.532000     -2.250000
C          20.825000     18.754000     -2.942000
N          19.782000     17.347000     -1.258000
C          19.792000     19.652000     -2.828000
C          18.865000     18.272000     -1.023000
C          18.740000     19.392000     -1.889000
C          17.456000     20.166000     -1.877000
C          16.242000     19.455000     -1.676000
C          17.344000     21.609000     -2.140000
N          15.069000     20.089000     -1.366000
N          18.344000     22.451000     -2.486000
C          16.100000     22.165000     -1.897000
C          14.938000     21.399000     -1.519000
S          17.602000     23.925000     -2.614000
N          16.130000     23.517000     -2.043000
C          13.606000     22.032000     -1.229000
S          13.036000     23.596000     -1.829000
C          12.594000     21.465000     -0.528000
C          11.550000     23.590000     -0.948000
S          12.593000     20.046000      0.413000
C          11.430000     22.369000     -0.365000
C          10.540000     24.607000     -1.017000
C          10.931000     20.534000      1.069000
C          10.517000     21.781000      0.549000
N          10.809000     25.527000     -1.956000
S           8.953000     24.677000     -0.283000
C           9.623000     26.306000     -2.148000
C           8.579000     26.085000     -1.286000
C          21.675000     16.326000     -2.368000
H          21.591000     18.961000     -3.684000
H          19.764000     20.536000     -3.459000
H          18.116000     18.145000     -0.242000
H          16.260000     18.395000     -1.429000
H          10.514000     19.726000      1.654000
H           9.552000     22.163000      0.861000
H           9.701000     27.043000     -2.937000
H           7.605000     26.548000     -1.204000
H          22.684000     16.633000     -2.668000
C          21.216000     15.438000     -3.594000
H          21.758000     15.688000     -1.480000
H          20.131000     15.303000     -3.514000
H          21.583000     14.404000     -3.616000
C          21.580000     16.119000     -4.949000
H          20.769000     16.832000     -5.145000
C          21.679000     15.069000     -6.127000
H          22.546000     16.615000     -4.793000
H          20.773000     14.468000     -6.276000
H          22.503000     14.395000     -5.862000
C          22.042000     15.614000     -7.515000
H          21.118000     16.048000     -7.917000
C          22.560000     14.598000     -8.681000
H          22.720000     16.461000     -7.354000
H          23.430000     14.111000     -8.223000
H          22.838000     15.218000     -9.542000
H          21.878000     13.749000     -8.816000
$end

--------------------------------------------------------------

             Standard Nuclear Orientation (Angstroms)
    I     Atom           X                Y                Z
 ----------------------------------------------------------------
    1      C       5.5054413748     3.8717644555     0.0310349858
    2      C       4.6576296489     5.0099722733     0.0177594155
    3      N       5.0622761736     2.6118373369     0.1742874214
    4      C       3.2759761809     4.8273975097     0.1867154748
    5      C       3.7390432041     2.4687283215     0.4516109115
    6      C       2.8018838102     3.4852479273     0.3990546429
    7      C       1.3080005119     3.1997153505     0.5129003227
    8      C       0.4890242392     4.0590522944    -0.2000848676
    9      C       0.6420452325     2.1726443239     1.1709076722
   10      N      -0.8703720737     3.8932540938    -0.3770018573
   11      N       1.2640116236     1.2258761827     1.8592171194
   12      C      -0.7481007711     2.0262215452     1.0763378109
   13      C      -1.5576027983     2.9687356278     0.3499063467
   14      S       0.0474285011     0.4358468850     2.6295730208
   15      N      -1.2396064820     0.9703412651     1.7801204266
   16      C      -3.0199429933     2.7985781942     0.1834082928
   17      S      -4.0255014073     1.3754467138     0.6593831509
   18      C      -3.8721553772     3.8526803934    -0.1908117041
   19      C      -5.4955720403     2.1610946876     0.0697878700
   20      S      -3.5487789194     5.5997890534    -0.3673478108
   21      C      -5.2551683868     3.4643870656    -0.2627374084
   22      C      -6.7392732855     1.5268310112    -0.0590484654
   23      C      -5.1966105378     5.7330941906    -0.8297823442
   24      C      -6.0176613614     4.5830332528    -0.6527530128
   25      N      -7.7689133417     2.2359474104    -0.4722327913
   26      S      -6.9996971815    -0.0967187818     0.4628398982
   27      C      -8.8951882389     1.4601227083    -0.4535275095
   28      C      -8.6606237387     0.1393299068    -0.0154466145
   29      C       7.0130597543     3.9582127599     0.0396670595
   30      H       5.0689482873     6.0150966982     0.0329537651
   31      H       2.6380895057     5.6943257777     0.3318945633
   32      H       3.4145013935     1.4472054855     0.6436986747
   33      H       0.8937709866     4.9410999254    -0.6956966584
   34      H      -5.3874816150     6.7737053791    -1.0572281318
   35      H      -7.0856627379     4.5750889459    -0.8408565691
   36      H      -9.8056117131     1.9256646265    -0.8066462147
   37      H      -9.2984995545    -0.7286802590    -0.1187461585
   38      H       7.3748795426     4.7109751114    -0.6711924786
   39      C       7.7434919708     2.5525009031    -0.0222680072
   40      H       7.3230090172     4.3296238214     1.0243595383
   41      H       7.4432616512     1.8995428817    -0.8511694353
   42      H       7.5653798666     1.9600748710     0.8835755084
   43      C       9.2453939760     2.7757859884    -0.0521199362
   44      H       9.5824700979     3.3660479982    -0.9126671155
   45      C      10.0161889974     1.4548563884     0.0592534300
   46      H       9.5640873020     3.3948767287     0.7949232854
   47      H       9.4662089951     0.8818348262     0.8160475144
   48      H      11.0830052576     1.5366560471     0.3021564617
   49      C       9.9689167276     0.6579172290    -1.3325810820
   50      H       8.9883333896     0.1692578358    -1.3776178973
   51      C      10.9974184548    -0.4335742738    -1.4431590919
   52      H       9.9891073609     1.3384320951    -2.1932232001
   53      H      12.0555450512    -0.1715120474    -1.3178056091
   54      H      10.9197908392    -0.9999154544    -2.3789649588
   55      H      10.7288340100    -1.1872488095    -0.6928490958
   56      C       5.7340120367    -1.6070177389     1.3006140969
   57      C       5.3576353021    -0.9525586192     0.1117458055
   58      N       4.8013648455    -1.9741497577     2.2448816954
   59      C       4.0282422874    -0.9553633216    -0.2335009845
   60      C       3.5084217248    -1.8413520618     1.9950780549
   61      C       3.0650634868    -1.4658950934     0.6979864862
   62      C       1.6427683327    -1.7496620159     0.3179485561
   63      C       1.0364144202    -2.9358267719     0.8129900739
   64      C       0.8409577299    -0.9291956335    -0.6028644938
   65      N      -0.3166249565    -3.1378618681     0.7634798217
   66      N       1.2554279997     0.1583737677    -1.2914043931
   67      C      -0.5026089300    -1.2537022978    -0.6752872460
   68      C      -1.0941456444    -2.3809470664     0.0024203215
   69      S      -0.0919556220     0.6475673070    -2.1189737600
   70      N      -1.1813834833    -0.3631500754    -1.4474930768
   71      C      -2.5629759751    -2.6919909194    -0.0668774496
   72      S      -3.6789035621    -2.2009816443    -1.3493015263
   73      C      -3.2505658226    -3.4721071172     0.8024170457
   74      C      -5.0990799944    -2.8348662648    -0.5971830589
   75      S      -2.7626071917    -4.1051536806     2.3058103486
   76      C      -4.6997444421    -3.5366019733     0.4951667533
   77      C      -6.4189548758    -2.8072947558    -1.1596064841
   78      C      -4.5209719813    -4.5940943417     2.6217443555
   79      C      -5.3664044304    -4.1917664281     1.5633582142
   80      N      -6.4248033339    -2.3439725304    -2.4188841783
   81      S      -7.9128026825    -3.5061773964    -0.5746220526
   82      C      -7.7100610722    -2.6350624755    -2.9789557720
   83      C      -8.6644048891    -3.1414447843    -2.1336003221
   84      C       7.1756456665    -1.8650812154     1.7878427079
   85      H       6.0675239139    -0.5896189261    -0.6261579403
   86      H       3.7162754516    -0.5952468872    -1.2099198736
   87      H       2.7551165804    -2.1248417204     2.7294185570
   88      H       1.5588975378    -3.5601402819     1.5356082532
   89      H      -4.5798022418    -5.2018839347     3.5139936542
   90      H      -6.4202430452    -4.4329328856     1.6392259531
   91      H      -7.8092193847    -2.3645546178    -4.0223958172
   92      H      -9.6975931001    -3.4153975617    -2.2986487887
   93      H       7.8785183233    -1.1208517209     1.3948764400
   94      C       7.6987295944    -3.2031015123     1.1257355493
   95      H       7.3130607767    -1.9300436260     2.8738325664
   96      H       6.9113437866    -3.9569844863     1.2420714905
   97      H       8.5606950217    -3.6839851728     1.6054182646
   98      C       8.0293076520    -2.9916834025    -0.3836691448
   99      H       7.0710618697    -3.0907174048    -0.9094669073
  100      C       9.0572897802    -4.0681813013    -0.9169514507
  101      H       8.4509293173    -1.9822980609    -0.4666414506
  102      H       8.7378255017    -5.1086279876    -0.7767684710
  103      H       9.9822700443    -3.9095075919    -0.3488747261
  104      C       9.4727137285    -3.9621467800    -2.3905584619
  105      H       8.6464839593    -4.3975112764    -2.9663519350
  106      C      10.8012935062    -4.7445357852    -2.9224223719
  107      H       9.4764629902    -2.8943768917    -2.6412922024
  108      H      11.5975621464    -4.3596767532    -2.2730590082
  109      H      10.9437822432    -4.4525211288    -3.9700050179
  110      H      10.7873811499    -5.8069017840    -2.6479502767
 ----------------------------------------------------------------

   10   -5663.4885405886      5.49E-06 Convergence criterion met
 Total energy in the final basis set = -5663.4885405886

                    Orbital Energies (a.u.)
 --------------------------------------------------------------

 Alpha MOs
 -- Occupied --
-88.987 -88.981 -88.935 -88.921 -88.920 -88.915 -88.909 -88.906
-14.386 -14.384 -14.383 -14.376 -14.350 -14.348 -14.345 -14.335
-14.327 -14.326 -10.275 -10.267 -10.264 -10.258 -10.256 -10.254
-10.252 -10.249 -10.242 -10.240 -10.238 -10.237 -10.237 -10.236
-10.236 -10.235 -10.234 -10.231 -10.231 -10.230 -10.230 -10.229
-10.227 -10.226 -10.225 -10.222 -10.219 -10.216 -10.215 -10.215
-10.214 -10.213 -10.212 -10.206 -10.203 -10.202 -10.197 -10.195
-10.189 -10.187 -10.182 -10.180 -10.179 -10.178 -10.178 -10.177
-10.177 -10.177 -10.171 -10.169  -8.042  -8.037  -7.996  -7.983
 -7.978  -7.974  -7.969  -7.966  -6.007  -6.002  -6.001  -5.999
 -5.997  -5.994  -5.960  -5.956  -5.952  -5.947  -5.943  -5.943
 -5.940  -5.939  -5.939  -5.935  -5.934  -5.934  -5.931  -5.930
 -5.930  -5.927  -5.926  -5.922  -1.039  -1.033  -0.968  -0.961
 -0.955  -0.943  -0.935  -0.934  -0.908  -0.908  -0.899  -0.896
 -0.840  -0.837  -0.828  -0.825  -0.808  -0.806  -0.804  -0.803
 -0.800  -0.800  -0.796  -0.792  -0.780  -0.779  -0.764  -0.762
 -0.749  -0.747  -0.741  -0.736  -0.716  -0.713  -0.707  -0.705
 -0.692  -0.688  -0.673  -0.666  -0.652  -0.651  -0.642  -0.641
 -0.633  -0.630  -0.619  -0.619  -0.613  -0.604  -0.600  -0.595
 -0.593  -0.590  -0.584  -0.580  -0.580  -0.574  -0.566  -0.563
 -0.546  -0.542  -0.539  -0.533  -0.523  -0.518  -0.516  -0.507
 -0.506  -0.505  -0.503  -0.493  -0.487  -0.485  -0.476  -0.472
 -0.471  -0.466  -0.465  -0.463  -0.460  -0.453  -0.449  -0.447
 -0.445  -0.441  -0.436  -0.435  -0.435  -0.432  -0.431  -0.430
 -0.427  -0.425  -0.421  -0.419  -0.418  -0.415  -0.411  -0.411
 -0.409  -0.408  -0.405  -0.400  -0.398  -0.396  -0.395  -0.393
 -0.392  -0.390  -0.388  -0.385  -0.381  -0.379  -0.378  -0.376
 -0.374  -0.374  -0.373  -0.369  -0.366  -0.360  -0.358  -0.357
 -0.352  -0.351  -0.347  -0.345  -0.343  -0.341  -0.339  -0.337
 -0.334  -0.333  -0.331  -0.328  -0.327  -0.322  -0.320  -0.317
 -0.315  -0.311  -0.308  -0.307  -0.305  -0.301  -0.298  -0.296
 -0.294  -0.293  -0.289  -0.289  -0.286  -0.284  -0.282  -0.280
 -0.272  -0.268  -0.265  -0.263  -0.257  -0.253  -0.248  -0.246
 -0.240  -0.235  -0.229  -0.225  -0.198  -0.186

          Ground-State Mulliken Net Atomic Charges

     Atom                 Charge (a.u.)
  ----------------------------------------
      1 C                     0.282148
      2 C                    -0.119551
      3 N                    -0.497653
      4 C                    -0.091842
      5 C                     0.079348
      6 C                     0.046455
      7 C                     0.074791
      8 C                     0.028119
      9 C                     0.233325
     10 N                    -0.514140
     11 N                    -0.565498
     12 C                     0.176763
     13 C                     0.280262
     14 S                     0.592276
     15 N                    -0.550126
     16 C                    -0.209546
     17 S                     0.342732
     18 C                    -0.131608
     19 C                    -0.249753
     20 S                     0.289567
     21 C                     0.180854
     22 C                     0.092365
     23 C                    -0.307449
     24 C                    -0.068435
     25 N                    -0.448658
     26 S                     0.289372
     27 C                     0.124050
     28 C                    -0.325690
     29 C                    -0.253881
     30 H                     0.091365
     31 H                     0.109255
     32 H                     0.132962
     33 H                     0.109642
     34 H                     0.128956
     35 H                     0.124847
     36 H                     0.111504
     37 H                     0.131343
     38 H                     0.104704
     39 C                    -0.156993
     40 H                     0.122793
     41 H                     0.106935
     42 H                     0.111352
     43 C                    -0.181894
     44 H                     0.086601
     45 C                    -0.185385
     46 H                     0.081077
     47 H                     0.094497
     48 H                     0.089688
     49 C                    -0.179893
     50 H                     0.095546
     51 C                    -0.326498
     52 H                     0.092128
     53 H                     0.099738
     54 H                     0.103801
     55 H                     0.104496
     56 C                     0.263968
     57 C                    -0.090368
     58 N                    -0.480056
     59 C                    -0.081802
     60 C                     0.083295
     61 C                     0.036748
     62 C                     0.002305
     63 C                     0.036233
     64 C                     0.244720
     65 N                    -0.512817
     66 N                    -0.577317
     67 C                     0.205281
     68 C                     0.315436
     69 S                     0.618973
     70 N                    -0.549707
     71 C                    -0.207957
     72 S                     0.361756
     73 C                    -0.104004
     74 C                    -0.209487
     75 S                     0.259833
     76 C                     0.120580
     77 C                     0.066399
     78 C                    -0.301146
     79 C                    -0.095033
     80 N                    -0.425524
     81 S                     0.258479
     82 C                     0.116823
     83 C                    -0.314562
     84 C                    -0.231640
     85 H                     0.103660
     86 H                     0.125770
     87 H                     0.104795
     88 H                     0.118141
     89 H                     0.139144
     90 H                     0.115099
     91 H                     0.119786
     92 H                     0.143454
     93 H                     0.105859
     94 C                    -0.192246
     95 H                     0.120584
     96 H                     0.106828
     97 H                     0.092770
     98 C                    -0.188828
     99 H                     0.101723
    100 C                    -0.179772
    101 H                     0.100200
    102 H                     0.093303
    103 H                     0.088793
    104 C                    -0.192835
    105 H                     0.090078
    106 C                    -0.326741
    107 H                     0.093438
    108 H                     0.105354
    109 H                     0.112588
    110 H                     0.108482
  ----------------------------------------
  Sum of atomic charges =     0.000000

                    Cartesian Multipole Moments
 -----------------------------------------------------------------
    Charge (ESU x 10^10)
                 0.0000
    Dipole Moment (Debye)
         X      -2.3984      Y       0.5146      Z      -0.4787
       Tot       2.4993
    Quadrupole Moments (Debye-Ang)
        XX    -389.6899     XY      28.6874     YY    -425.3260
        XZ      -1.8491     YZ      -2.6165     ZZ    -445.0631

 Total job time:  117.78s(wall), 1278.18s(cpu)
        *  Thank you very much for using Q-Chem.  Have a nice day.  *
