 Q-Chem 4.4, Q-Chem, Inc., Pleasanton, CA (2016)
 Q-Chem 4.4.2 for Intel X86 Linux

User input:
--------------------------------------------------------------
$comment
SP
$end

$rem
MEM_STATIC 5000
MEM_TOTAL 20000
JOBTYPE SP
EXCHANGE B3LYP
BASIS 6-31g(d,p)
$end

$molecule
0 1
C          16.004000     16.436000    -13.916000
C          15.775000     17.800000    -13.611000
N          14.940000     15.608000    -14.176000
C          14.443000     18.302000    -13.540000
C          13.702000     16.096000    -14.072000
C          13.342000     17.387000    -13.674000
C          11.985000     17.686000    -13.227000
C          11.812000     18.640000    -12.212000
C          10.806000     17.167000    -13.746000
N          10.652000     19.075000    -11.710000
N          10.720000     16.282000    -14.767000
C           9.554000     17.624000    -13.259000
C           9.527000     18.553000    -12.238000
S           9.144000     16.168000    -15.037000
N           8.441000     17.064000    -13.866000
C           8.220000     19.003000    -11.658000
S           6.727000     18.041000    -11.364000
C           8.048000     20.260000    -11.165000
C           5.919000     19.486000    -10.740000
S           9.076000     21.676000    -11.274000
C           6.817000     20.539000    -10.709000
C           4.556000     19.587000    -10.276000
C           7.815000     22.608000    -10.462000
C           6.727000     21.827000    -10.209000
N           3.997000     20.734000    -10.002000
S           3.580000     18.174000     -9.980000
C           2.680000     20.487000     -9.710000
C           2.224000     19.176000     -9.598000
C          17.344000     15.835000    -14.200000
H          16.584000     18.513000    -13.482000
H          14.300000     19.359000    -13.339000
H          12.973000     15.310000    -14.267000
H          12.697000     19.137000    -11.817000
H           7.874000     23.688000    -10.440000
H           5.837000     22.316000     -9.828000
H           2.133000     21.378000     -9.431000
H           1.302000     18.843000     -9.138000
H          17.324000     15.308000    -15.161000
C          17.690000     14.872000    -13.040000
H          18.136000     16.594000    -14.212000
H          18.618000     14.309000    -13.203000
H          16.947000     14.083000    -12.869000
C          17.893000     15.566000    -11.658000
H          18.825000     16.141000    -11.727000
C          18.137000     14.411000    -10.600000
H          17.076000     16.243000    -11.377000
H          19.012000     13.794000    -10.836000
H          17.196000     13.852000    -10.518000
C          18.304000     14.950000     -9.192000
H          19.321000     15.361000     -9.163000
C          18.209000     13.752000     -8.186000
H          17.514000     15.685000     -8.996000
H          18.073000     14.096000     -7.153000
H          19.057000     13.067000     -8.063000
H          17.337000     13.134000     -8.433000
C           0.854000     13.709000    -14.705000
C           1.173000     12.737000    -13.773000
N           1.693000     14.681000    -15.094000
C           2.420000     12.855000    -13.135000
C           2.891000     14.771000    -14.556000
C           3.294000     13.847000    -13.557000
C           4.785000     13.877000    -13.026000
C           5.848000     13.795000    -13.942000
C           5.110000     13.950000    -11.638000
N           7.169000     13.897000    -13.628000
N           4.290000     14.041000    -10.590000
C           6.473000     14.087000    -11.313000
C           7.459000     13.998000    -12.299000
S           5.310000     13.999000     -9.293000
N           6.736000     14.204000    -10.007000
C           8.849000     14.280000    -11.941000
S           9.492000     15.389000    -10.655000
C           9.938000     13.800000    -12.555000
C          11.224000     15.033000    -10.913000
S           9.951000     12.494000    -13.750000
C          11.190000     14.093000    -11.915000
C          12.321000     15.740000    -10.276000
C          11.740000     12.655000    -13.723000
C          12.229000     13.453000    -12.664000
N          13.580000     15.470000    -10.621000
S          12.144000     16.918000     -8.978000
C          14.424000     16.273000     -9.855000
C          13.886000     17.196000     -9.011000
C          -0.469000     13.601000    -15.498000
H           0.492000     11.913000    -13.575000
H           2.835000     12.151000    -12.420000
H           3.500000     15.624000    -14.854000
H           5.712000     14.016000    -14.999000
H          12.346000     12.203000    -14.498000
H          13.281000     13.632000    -12.473000
H          15.486000     16.111000     -9.985000
H          14.305000     17.952000     -8.360000
H          -0.282000     13.573000    -16.578000
C          -1.368000     14.798000    -15.234000
H          -0.974000     12.673000    -15.201000
H          -0.862000     15.745000    -15.461000
H          -1.762000     14.885000    -14.214000
C          -2.540000     14.883000    -16.223000
H          -2.302000     14.725000    -17.282000
C          -3.458000     16.176000    -16.059000
H          -3.208000     14.029000    -16.055000
H          -3.405000     16.732000    -15.114000
H          -4.503000     15.844000    -16.099000
C          -3.063000     17.339000    -17.006000
H          -3.488000     18.262000    -16.594000
C          -3.708000     17.084000    -18.417000
H          -1.975000     17.467000    -17.059000
H          -3.218000     17.774000    -19.115000
H          -4.784000     17.245000    -18.275000
H          -3.541000     16.097000    -18.864000
$end

--------------------------------------------------------------

             Standard Nuclear Orientation (Angstroms)
    I     Atom           X                Y                Z
 ----------------------------------------------------------------
    1      C       7.3188732718    -1.1770887553    -2.6788896800
    2      C       7.1396703501     0.1903681500    -3.0012403043
    3      N       6.2295477996    -1.9512897620    -2.3638296589
    4      C       5.8372974462     0.7680548319    -2.9642009106
    5      C       5.0254873881    -1.3781487677    -2.3059338380
    6      C       4.7333983798    -0.0237975097    -2.4932882645
    7      C       3.4714577232     0.5451786827    -2.0302214529
    8      C       3.4704036570     1.8647765160    -1.5517546857
    9      C       2.2233021167    -0.0627747311    -2.0657633803
   10      N       2.4113957432     2.5648128962    -1.1330897781
   11      N       1.9678529970    -1.3044280871    -2.5412680499
   12      C       1.0709935186     0.6569029757    -1.6561649269
   13      C       1.2149213923     1.9460988410    -1.1834390149
   14      S       0.3693824233    -1.4102308318    -2.4832197577
   15      N      -0.1269928299    -0.0321818995    -1.7601300341
   16      C       0.0243351523     2.7056757074    -0.6807498574
   17      S      -1.3925016690     2.0946593207     0.2466990075
   18      C      -0.0661506910     4.0587047844    -0.7982514695
   19      C      -2.0880418237     3.7214383822     0.2555747122
   20      S       0.9222361614     5.1915860909    -1.7001341534
   21      C      -1.2023236978     4.6045709702    -0.3375140109
   22      C      -3.3521683343     4.1225249016     0.8251181866
   23      C      -0.1854020703     6.4810458964    -1.2220965422
   24      C      -1.2109483476     5.9822058587    -0.4756868358
   25      N      -3.8609128032     5.3076769839     0.6257200741
   26      S      -4.2573922206     3.0729247491     1.8813711088
   27      C      -5.1076484050     5.3182526565     1.1969472567
   28      C      -5.5323692614     4.2374111057     1.9654488744
   29      C       8.5931588350    -1.9396210610    -2.8583270955
   30      H       7.9558477012     0.8221640017    -3.3391449260
   31      H       5.7263415713     1.8091904514    -3.2502505840
   32      H       4.2771639898    -2.1106273033    -2.0046876158
   33      H       4.4077939636     2.4190713813    -1.5695202493
   34      H      -0.1279971365     7.4466856415    -1.7064616487
   35      H      -2.0248175017     6.6554396200    -0.2292009285
   36      H      -5.6026521425     6.2771897890     1.1173113620
   37      H      -6.3608607916     4.2179835019     2.6624405189
   38      H       8.4115006546    -2.8408315231    -3.4553781893
   39      C       9.1362012652    -2.2973907063    -1.4548347372
   40      H       9.3683120040    -1.3293723305    -3.3381427388
   41      H      10.0250538787    -2.9407440219    -1.4823945387
   42      H       8.4366097604    -2.8661221749    -0.8295929894
   43      C       9.5693828807    -1.0711476317    -0.5937594734
   44      H      10.4735059977    -0.6606667087    -1.0607464124
   45      C       9.9953006101    -1.6380813666     0.8240223251
   46      H       8.8095794037    -0.2814126709    -0.5321447999
   47      H      10.8196882079    -2.3584706323     0.7654186169
   48      H       9.0844638042    -2.0277935931     1.2964487146
   49      C      10.3980961153    -0.5351979571     1.7843753675
   50      H      11.4033891412    -0.2325697091     1.4652310813
   51      C      10.4812951653    -1.1385710365     3.2284265595
   52      H       9.6501365910     0.2656787140     1.7408540192
   53      H      10.5223048263    -0.3558781251     3.9963009073
   54      H      11.3406801292    -1.7551903023     3.5194526148
   55      H       9.5824949425    -1.7345312379     3.4291915908
   56      C      -7.7318078635    -2.8279741035     0.2078255696
   57      C      -7.2542739548    -3.2947482905     1.4199527182
   58      N      -6.9756227487    -2.2022176241    -0.7068541014
   59      C      -5.9171273812    -2.9945798058     1.7328663190
   60      C      -5.7037196399    -1.9684693135    -0.4611465327
   61      C      -5.1321764161    -2.3685643447     0.7747532647
   62      C      -3.5725278419    -2.2131691364     0.9967682510
   63      C      -2.6812717879    -2.7792188706     0.0688677474
   64      C      -3.0155362317    -1.5453708903     2.1287151794
   65      N      -1.3264867154    -2.6451859127     0.0940386331
   66      N      -3.6448567063    -0.9298012290     3.1307205348
   67      C      -1.6176352327    -1.3783857456     2.1410342065
   68      C      -0.8141740961    -1.9765439492     1.1668833119
   69      S      -2.4181493668    -0.4571842480     4.1288163681
   70      N      -1.1359205185    -0.7038985705     3.1905636176
   71      C       0.6153642006    -1.6677597545     1.1375476774
   72      S       1.4639558267    -0.1487796610     1.6568912322
   73      C       1.5854730992    -2.4531102310     0.6523360186
   74      C       3.1279010319    -0.7109986753     1.3277709897
   75      S       1.3995971705    -4.1550263616     0.2020454199
   76      C       2.9271609895    -1.9968392834     0.8860953553
   77      C       4.3146362122     0.1235145851     1.3931485861
   78      C       3.1662358065    -4.1331214492    -0.1230378074
   79      C       3.8256112442    -2.9816949246     0.3636314753
   80      N       5.4973191855    -0.3662857904     1.0211773820
   81      S       4.3570477017     1.7704104932     2.0174499024
   82      C       6.4564091193     0.6307240676     1.1944368468
   83      C       6.0666433707     1.8727215499     1.5934780918
   84      C      -9.1703528412    -3.1836185384    -0.2337028926
   85      H      -7.8880200586    -3.8870185284     2.0753326395
   86      H      -5.3831820633    -3.3283137577     2.6175075157
   87      H      -5.1581155422    -1.3902320275    -1.2062987383
   88      H      -2.9967278046    -3.0501961065    -0.9369378199
   89      H       3.6328310207    -4.9303038559    -0.6877980366
   90      H       4.8940230893    -2.8147240113     0.2871929826
   91      H       7.4812626046     0.3487690933     0.9915459250
   92      H       6.5875351945     2.8076845540     1.7528954333
   93      H      -9.1704524168    -3.7104329383    -1.1952743035
   94      C     -10.0160138223    -1.9331791042    -0.4124897106
   95      H      -9.6133454222    -3.8367373743     0.5289315935
   96      H      -9.5601587007    -1.2316160797    -1.1226864657
   97      H     -10.2303637961    -1.3655869463     0.5013473816
   98      C     -11.3400577598    -2.2170702520    -1.1372265372
   99      H     -11.2857804773    -2.8537672477    -2.0287196175
  100      C     -12.2219182767    -0.9250546821    -1.4446135828
  101      H     -11.9659944831    -2.8505343512    -0.4963751867
  102      H     -12.0105985793    -0.0077541357    -0.8799245595
  103      H     -13.2570065160    -1.1603353663    -1.1669729219
  104      C     -11.9993056676    -0.3485114206    -2.8670918758
  105      H     -12.3515194298     0.6898680015    -2.8636799192
  106      C     -12.8747647960    -1.1646312905    -3.8866460296
  107      H     -10.9368870679    -0.3398099703    -3.1393564600
  108      H     -12.5140549181    -0.9031552619    -4.8891043432
  109      H     -13.9113586548    -0.8770992376    -3.6706379502
  110      H     -12.7824698399    -2.2564783811    -3.8517379832
 ----------------------------------------------------------------

   11   -5663.4957309082      5.72E-06 Convergence criterion met
 Total energy in the final basis set = -5663.4957309082

                    Orbital Energies (a.u.)
 --------------------------------------------------------------

 Alpha MOs
 -- Occupied --
-88.993 -88.981 -88.925 -88.923 -88.918 -88.918 -88.909 -88.897
-14.394 -14.387 -14.384 -14.377 -14.360 -14.346 -14.345 -14.336
-14.328 -14.322 -10.275 -10.266 -10.262 -10.262 -10.256 -10.252
-10.248 -10.246 -10.245 -10.244 -10.243 -10.235 -10.235 -10.233
-10.232 -10.231 -10.230 -10.230 -10.230 -10.229 -10.229 -10.228
-10.225 -10.224 -10.220 -10.216 -10.215 -10.214 -10.214 -10.214
-10.213 -10.213 -10.211 -10.203 -10.201 -10.197 -10.193 -10.186
-10.186 -10.182 -10.181 -10.180 -10.178 -10.177 -10.177 -10.176
-10.176 -10.175 -10.173 -10.169  -8.049  -8.036  -7.983  -7.983
 -7.980  -7.977  -7.969  -7.958  -6.014  -6.008  -6.007  -6.001
 -5.995  -5.995  -5.948  -5.948  -5.944  -5.944  -5.944  -5.942
 -5.940  -5.940  -5.940  -5.938  -5.937  -5.934  -5.933  -5.930
 -5.924  -5.922  -5.919  -5.914  -1.052  -1.034  -0.972  -0.964
 -0.960  -0.957  -0.948  -0.929  -0.919  -0.915  -0.908  -0.903
 -0.841  -0.834  -0.832  -0.829  -0.815  -0.806  -0.805  -0.804
 -0.803  -0.801  -0.799  -0.788  -0.783  -0.782  -0.767  -0.763
 -0.749  -0.743  -0.740  -0.734  -0.725  -0.714  -0.705  -0.703
 -0.691  -0.686  -0.679  -0.666  -0.653  -0.652  -0.650  -0.643
 -0.640  -0.634  -0.633  -0.617  -0.613  -0.612  -0.599  -0.593
 -0.590  -0.589  -0.585  -0.578  -0.575  -0.571  -0.571  -0.557
 -0.554  -0.545  -0.542  -0.535  -0.524  -0.517  -0.515  -0.509
 -0.506  -0.504  -0.502  -0.495  -0.494  -0.484  -0.480  -0.479
 -0.476  -0.472  -0.469  -0.466  -0.463  -0.458  -0.448  -0.443
 -0.440  -0.440  -0.437  -0.434  -0.433  -0.432  -0.431  -0.429
 -0.428  -0.426  -0.424  -0.420  -0.417  -0.413  -0.412  -0.410
 -0.407  -0.406  -0.405  -0.401  -0.400  -0.398  -0.396  -0.395
 -0.393  -0.391  -0.389  -0.388  -0.384  -0.382  -0.379  -0.377
 -0.374  -0.371  -0.370  -0.366  -0.365  -0.361  -0.358  -0.356
 -0.355  -0.351  -0.348  -0.347  -0.344  -0.342  -0.342  -0.338
 -0.336  -0.335  -0.333  -0.331  -0.330  -0.328  -0.325  -0.317
 -0.315  -0.313  -0.313  -0.306  -0.302  -0.300  -0.299  -0.297
 -0.292  -0.290  -0.289  -0.288  -0.287  -0.285  -0.282  -0.278
 -0.276  -0.273  -0.267  -0.263  -0.255  -0.254  -0.249  -0.246
 -0.244  -0.243  -0.234  -0.224  -0.198  -0.187

          Ground-State Mulliken Net Atomic Charges

     Atom                 Charge (a.u.)
  ----------------------------------------
      1 C                     0.276871
      2 C                    -0.131546
      3 N                    -0.487558
      4 C                    -0.096714
      5 C                     0.086315
      6 C                     0.044692
      7 C                     0.075739
      8 C                     0.042552
      9 C                     0.213464
     10 N                    -0.502909
     11 N                    -0.542103
     12 C                     0.209855
     13 C                     0.242083
     14 S                     0.647958
     15 N                    -0.552253
     16 C                    -0.214952
     17 S                     0.313700
     18 C                    -0.102092
     19 C                    -0.245825
     20 S                     0.249844
     21 C                     0.180241
     22 C                     0.070041
     23 C                    -0.302654
     24 C                    -0.061463
     25 N                    -0.430056
     26 S                     0.257109
     27 C                     0.106863
     28 C                    -0.309331
     29 C                    -0.217454
     30 H                     0.088421
     31 H                     0.103126
     32 H                     0.127681
     33 H                     0.102073
     34 H                     0.130965
     35 H                     0.125440
     36 H                     0.100955
     37 H                     0.141183
     38 H                     0.121913
     39 C                    -0.179462
     40 H                     0.093702
     41 H                     0.086120
     42 H                     0.117128
     43 C                    -0.193542
     44 H                     0.086584
     45 C                    -0.169144
     46 H                     0.095009
     47 H                     0.095521
     48 H                     0.099992
     49 C                    -0.177682
     50 H                     0.094803
     51 C                    -0.328293
     52 H                     0.090944
     53 H                     0.095831
     54 H                     0.104157
     55 H                     0.104255
     56 C                     0.275191
     57 C                    -0.126658
     58 N                    -0.469435
     59 C                    -0.047330
     60 C                     0.079969
     61 C                     0.020601
     62 C                    -0.010846
     63 C                     0.048022
     64 C                     0.261252
     65 N                    -0.475608
     66 N                    -0.557856
     67 C                     0.196351
     68 C                     0.261715
     69 S                     0.610298
     70 N                    -0.525254
     71 C                    -0.195711
     72 S                     0.294754
     73 C                    -0.125955
     74 C                    -0.227783
     75 S                     0.259292
     76 C                     0.141260
     77 C                     0.066554
     78 C                    -0.298828
     79 C                    -0.076594
     80 N                    -0.439284
     81 S                     0.279936
     82 C                     0.126493
     83 C                    -0.311307
     84 C                    -0.213193
     85 H                     0.096970
     86 H                     0.103537
     87 H                     0.113398
     88 H                     0.118521
     89 H                     0.135449
     90 H                     0.149186
     91 H                     0.107698
     92 H                     0.145370
     93 H                     0.116661
     94 C                    -0.167833
     95 H                     0.090607
     96 H                     0.119483
     97 H                     0.094843
     98 C                    -0.185379
     99 H                     0.092338
    100 C                    -0.181299
    101 H                     0.080296
    102 H                     0.084793
    103 H                     0.087898
    104 C                    -0.183586
    105 H                     0.091873
    106 C                    -0.312602
    107 H                     0.101261
    108 H                     0.096090
    109 H                     0.104293
    110 H                     0.101988
  ----------------------------------------
  Sum of atomic charges =     0.000000

                    Cartesian Multipole Moments
 -----------------------------------------------------------------
    Charge (ESU x 10^10)
                 0.0000
    Dipole Moment (Debye)
         X       0.3556      Y       0.3149      Z       2.1065
       Tot       2.1594
    Quadrupole Moments (Debye-Ang)
        XX    -400.6185     XY      14.6405     YY    -434.0421
        XZ     -22.0877     YZ      -4.0730     ZZ    -439.2030

 Total job time:  130.91s(wall), 1408.69s(cpu)
        *  Thank you very much for using Q-Chem.  Have a nice day.  *
