 Q-Chem 4.4, Q-Chem, Inc., Pleasanton, CA (2016)
 Q-Chem 4.4.2 for Intel X86 Linux

User input:
--------------------------------------------------------------
$comment
SP
$end

$rem
MEM_STATIC 5000
MEM_TOTAL 20000
JOBTYPE SP
EXCHANGE B3LYP
BASIS 6-31g(d,p)
$end

$molecule
0 1
C           1.032000     14.113000     -5.145000
C           1.591000     14.373000     -6.355000
N           1.426000     14.759000     -4.002000
C           2.566000     15.417000     -6.437000
C           2.354000     15.714000     -4.001000
C           2.999000     16.093000     -5.256000
C           3.770000     17.369000     -5.344000
C           3.466000     18.288000     -6.376000
C           4.783000     17.726000     -4.473000
N           4.039000     19.573000     -6.398000
N           5.340000     16.887000     -3.607000
C           5.422000     18.934000     -4.557000
C           4.979000     19.928000     -5.442000
S           6.560000     17.661000     -2.843000
N           6.445000     19.036000     -3.664000
C           5.445000     21.307000     -5.612000
S           5.314000     22.187000     -7.117000
C           5.914000     22.148000     -4.607000
C           5.757000     23.693000     -6.408000
S           6.073000     21.945000     -2.817000
C           6.020000     23.505000     -5.053000
C           5.880000     24.954000     -7.059000
C           6.416000     23.627000     -2.769000
C           6.359000     24.344000     -3.966000
N           6.529000     25.963000     -6.483000
S           5.475000     25.186000     -8.705000
C           6.825000     26.906000     -7.405000
C           6.218000     26.728000     -8.615000
C          -0.156000     13.123000     -4.862000
H           1.307000     13.800000     -7.233000
H           2.993000     15.607000     -7.417000
H           2.609000     16.111000     -3.019000
H           2.748000     18.094000     -7.170000
H           6.659000     24.079000     -1.817000
H           6.586000     25.399000     -4.064000
H           7.486000     27.729000     -7.167000
H           6.293000     27.398000     -9.460000
H          -0.366000     12.542000     -5.769000
C          -1.453000     13.842000     -4.569000
H           0.111000     12.459000     -4.031000
H          -1.633000     14.481000     -5.442000
H          -1.327000     14.465000     -3.675000
C          -2.673000     12.944000     -4.403000
H          -2.776000     12.185000     -5.188000
C          -3.941000     13.882000     -4.317000
H          -2.756000     12.322000     -3.503000
H          -4.014000     14.392000     -5.286000
H          -3.876000     14.592000     -3.483000
C          -5.153000     13.021000     -4.231000
H          -5.251000     12.555000     -5.219000
C          -6.451000     13.767000     -3.891000
H          -4.971000     12.165000     -3.569000
H          -6.638000     14.594000     -4.586000
H          -6.241000     14.195000     -2.903000
H          -7.245000     13.010000     -3.855000
C          20.719000     17.532000     -2.250000
C          20.825000     18.754000     -2.942000
N          19.782000     17.347000     -1.258000
C          19.792000     19.652000     -2.828000
C          18.865000     18.272000     -1.023000
C          18.740000     19.392000     -1.889000
C          17.456000     20.166000     -1.877000
C          16.242000     19.455000     -1.676000
C          17.344000     21.609000     -2.140000
N          15.069000     20.089000     -1.366000
N          18.344000     22.451000     -2.486000
C          16.100000     22.165000     -1.897000
C          14.938000     21.399000     -1.519000
S          17.602000     23.925000     -2.614000
N          16.130000     23.517000     -2.043000
C          13.606000     22.032000     -1.229000
S          13.036000     23.596000     -1.829000
C          12.594000     21.465000     -0.528000
C          11.550000     23.590000     -0.948000
S          12.593000     20.046000      0.413000
C          11.430000     22.369000     -0.365000
C          10.540000     24.607000     -1.017000
C          10.931000     20.534000      1.069000
C          10.517000     21.781000      0.549000
N          10.809000     25.527000     -1.956000
S           8.953000     24.677000     -0.283000
C           9.623000     26.306000     -2.148000
C           8.579000     26.085000     -1.286000
C          21.675000     16.326000     -2.368000
H          21.591000     18.961000     -3.684000
H          19.764000     20.536000     -3.459000
H          18.116000     18.145000     -0.242000
H          16.260000     18.395000     -1.429000
H          10.514000     19.726000      1.654000
H           9.552000     22.163000      0.861000
H           9.701000     27.043000     -2.937000
H           7.605000     26.548000     -1.204000
H          22.684000     16.633000     -2.668000
C          21.216000     15.438000     -3.594000
H          21.758000     15.688000     -1.480000
H          20.131000     15.303000     -3.514000
H          21.583000     14.404000     -3.616000
C          21.580000     16.119000     -4.949000
H          20.769000     16.832000     -5.145000
C          21.679000     15.069000     -6.127000
H          22.546000     16.615000     -4.793000
H          20.773000     14.468000     -6.276000
H          22.503000     14.395000     -5.862000
C          22.042000     15.614000     -7.515000
H          21.118000     16.048000     -7.917000
C          22.560000     14.598000     -8.681000
H          22.720000     16.461000     -7.354000
H          23.430000     14.111000     -8.223000
H          22.838000     15.218000     -9.542000
H          21.878000     13.749000     -8.816000
$end

--------------------------------------------------------------

             Standard Nuclear Orientation (Angstroms)
    I     Atom           X                Y                Z
 ----------------------------------------------------------------
    1      C      -9.3856006219    -4.7914413048    -0.0807967735
    2      C      -8.9374252271    -4.6987637190    -1.3593626422
    3      N      -8.7875935668    -4.1223488877     0.9554000704
    4      C      -7.8538192231    -3.8047000178    -1.6309010858
    5      C      -7.7522449487    -3.3037957356     0.7786687030
    6      C      -7.2093255888    -3.1084351323    -0.5636292533
    7      C      -6.2981774476    -1.9580442461    -0.8407048273
    8      C      -6.5974752539    -1.0846970095    -1.9129391429
    9      C      -5.1570238735    -1.6779956066    -0.1115955900
   10      N      -5.8729516088     0.1061429658    -2.1053024472
   11      N      -4.6168644514    -2.5186085886     0.7634607585
   12      C      -4.3841169413    -0.5766971302    -0.3653622942
   13      C      -4.7944755491     0.4003031539    -1.2843760362
   14      S      -3.2310344632    -1.8622872116     1.3290485006
   15      N      -3.2628312234    -0.5483570767     0.4068405162
   16      C      -4.1801386169     1.6875976921    -1.6207685236
   17      S      -4.3668588644     2.4643461641    -3.1758837477
   18      C      -3.4990596975     2.5291281683    -0.7459971459
   19      C      -3.6606369841     3.9447647476    -2.6499774125
   20      S      -3.1673352000     2.4384923262     1.0294841979
   21      C      -3.2732686322     3.8229873699    -1.3174407225
   22      C      -3.4531860329     5.1264203733    -3.4178999900
   23      C      -2.6115488277     4.0577885615     0.8951033563
   24      C      -2.7113854008     4.6860986231    -0.3480402899
   25      N      -2.6215674000     6.0781819207    -3.0012245691
   26      S      -4.0075787505     5.2894693919    -5.0282504898
   27      C      -2.3141175599     6.9023779034    -4.0274431510
   28      C      -3.0704987813     6.7195487576    -5.1493584558
   29      C     -10.6498037154    -5.5886558181     0.4068225024
   30      H      -9.3880932325    -5.2911076936    -2.1504985121
   31      H      -7.5188062624    -3.7465002832    -2.6620209174
   32      H      -7.3407214235    -2.8738167378     1.6912060719
   33      H      -7.4186557178    -1.2378232400    -2.6099405800
   34      H      -2.2082726439     4.5415315321     1.7743178114
   35      H      -2.3654486318     5.6907645546    -0.5604835011
   36      H      -1.5320358559     7.6439145493    -3.9306670633
   37      H      -3.0067089788     7.3094498554    -6.0529609989
   38      H     -11.0317941506    -6.2010165986    -0.4198621908
   39      C     -11.8045840523    -4.6817079667     0.7659143687
   40      H     -10.3773137848    -6.2197926172     1.2613174284
   41      H     -11.9991861136    -4.0900943562    -0.1368443885
   42      H     -11.5015432135    -4.0174679911     1.5845672285
   43      C     -13.1018281143    -5.3922861666     1.1327882777
   44      H     -13.3871498837    -6.1860135854     0.4317153338
   45      C     -14.2235805904    -4.2880448123     1.2646458286
   46      H     -13.1612790813    -5.9296399386     2.0875078733
   47      H     -14.3397629827    -3.8453827364     0.2671780655
   48      H     -13.9764068293    -3.5340126070     2.0224199145
   49      C     -15.5172355483    -4.9690140754     1.5481924961
   50      H     -15.7833951890    -5.4887946413     0.6198115350
   51      C     -16.6643251553    -4.0318013529     1.9516001637
   52      H     -15.3717053960    -5.7908125993     2.2606334837
   53      H     -16.8221432035    -3.2404068039     1.2095010251
   54      H     -16.2925699458    -3.5646790581     2.8719385938
   55      H     -17.5384550836    -4.6700644236     2.1340778909
   56      C      10.7749331741    -3.8563131770     0.4910138997
   57      C      10.9561094148    -2.7139113351    -0.3124020581
   58      N       9.9392160958    -3.8398908657     1.5853471546
   59      C      10.0640730854    -1.6788420691    -0.1731476083
   60      C       9.1784855778    -2.7849079630     1.8303760389
   61      C       9.0995983016    -1.7249068781     0.8868955158
   62      C       7.9330784392    -0.7859937231     0.9613904690
   63      C       6.6692773956    -1.3100305945     1.3459815239
   64      C       7.9753661990     0.6356881281     0.5858981799
   65      N       5.6278927507    -0.5025542415     1.7167711690
   66      N       9.0285232186     1.3073954161     0.0678734591
   67      C       6.8466444463     1.3707494792     0.9043208786
   68      C       5.6469931707     0.7983439027     1.4638498528
   69      S       8.4688977524     2.8546087016    -0.1126102984
   70      N       7.0305206563     2.6919438425     0.6383227698
   71      C       4.4465226043     1.6248134535     1.8310439444
   72      S       4.0148855919     3.2031057886     1.1574871210
   73      C       3.4560429747     1.2525231240     2.6780291945
   74      C       2.6482027433     3.4623174390     2.1818797759
   75      S       3.3814004344    -0.0804269627     3.7347768264
   76      C       2.4411363881     2.3147906003     2.8786119187
   77      C       1.7733468220     4.5984379165     2.1270402118
   78      C       1.8783850666     0.6741491829     4.5108461819
   79      C       1.5694590613     1.9240305327     3.9284662932
   80      N       2.0493752964     5.4023011723     1.0887270860
   81      S       0.3002309818     4.9355816817     3.0093603367
   82      C       0.9572147142     6.3179587357     0.9506782205
   83      C      -0.0030822377     6.3036993672     1.9301920972
   84      C      11.5517455707    -5.1856343533     0.3825532578
   85      H      11.6540792241    -2.6671735914    -1.1435595213
   86      H      10.0773419278    -0.8478750478    -0.8729466846
   87      H       8.5117419889    -2.7520251822     2.6914583284
   88      H       6.5808938187    -2.3417501933     1.6816540023
   89      H       1.4309410301    -0.0250646673     5.2035739970
   90      H       0.7015018072     2.4545837331     4.3021727376
   91      H       1.0386960480     6.9777712167     0.0964052652
   92      H      -0.8954647844     6.8986212089     2.0698000941
   93      H      12.5513930210    -5.0404168763    -0.0439990360
   94      C      10.8498192099    -6.0911800101    -0.7081288441
   95      H      11.6525473201    -5.7620730932     1.3099336471
   96      H       9.7723164092    -6.0723359039    -0.5069259265
   97      H      11.0785579050    -7.1640366584    -0.6767246811
   98      C      11.1426863570    -5.5668358187    -2.1474252011
   99      H      10.4113637337    -4.7672774100    -2.3217225665
  100      C      10.9756812442    -6.7042115111    -3.2329991630
  101      H      12.1749204157    -5.1955845771    -2.1342584367
  102      H       9.9901158519    -7.1867972915    -3.2361331774
  103      H      11.7324743720    -7.4619210237    -2.9950549336
  104      C      11.2466958230    -6.3165414220    -4.6929995055
  105      H      10.3456855940    -5.7925514597    -5.0355649541
  106      C      11.4983141404    -7.4759638547    -5.8121794932
  107      H      12.0399326465    -5.5592354961    -4.6763538934
  108      H      12.3456856500    -8.0409292528    -5.4040022969
  109      H      11.7540852554    -6.9640293847    -6.7478659980
  110      H      10.7037964682    -8.2327977611    -5.8024786326
 ----------------------------------------------------------------

    9   -5663.5036205121      8.19E-06 Convergence criterion met
 Total energy in the final basis set = -5663.5036205121

                    Orbital Energies (a.u.)
 --------------------------------------------------------------

 Alpha MOs
 -- Occupied --
-88.992 -88.989 -88.932 -88.924 -88.924 -88.915 -88.913 -88.906
-14.387 -14.385 -14.380 -14.372 -14.351 -14.351 -14.347 -14.337
-14.331 -14.326 -10.273 -10.268 -10.264 -10.263 -10.260 -10.256
-10.253 -10.247 -10.243 -10.241 -10.241 -10.239 -10.237 -10.236
-10.236 -10.236 -10.235 -10.234 -10.233 -10.232 -10.232 -10.228
-10.228 -10.227 -10.226 -10.223 -10.222 -10.222 -10.219 -10.217
-10.216 -10.213 -10.213 -10.211 -10.205 -10.202 -10.201 -10.191
-10.191 -10.185 -10.183 -10.182 -10.182 -10.180 -10.180 -10.177
-10.175 -10.172 -10.171 -10.169  -8.048  -8.045  -7.993  -7.987
 -7.984  -7.974  -7.973  -7.966  -6.013  -6.010  -6.007  -6.006
 -6.004  -6.002  -5.957  -5.953  -5.951  -5.949  -5.948  -5.947
 -5.944  -5.944  -5.940  -5.939  -5.937  -5.935  -5.934  -5.931
 -5.930  -5.929  -5.927  -5.922  -1.043  -1.035  -0.975  -0.959
 -0.956  -0.941  -0.938  -0.932  -0.908  -0.908  -0.899  -0.898
 -0.847  -0.837  -0.828  -0.827  -0.811  -0.810  -0.807  -0.807
 -0.804  -0.803  -0.798  -0.794  -0.787  -0.783  -0.769  -0.764
 -0.750  -0.748  -0.740  -0.738  -0.724  -0.712  -0.708  -0.706
 -0.693  -0.692  -0.675  -0.674  -0.653  -0.651  -0.645  -0.643
 -0.634  -0.633  -0.626  -0.622  -0.614  -0.609  -0.599  -0.594
 -0.593  -0.588  -0.580  -0.578  -0.577  -0.576  -0.568  -0.567
 -0.552  -0.542  -0.540  -0.538  -0.524  -0.522  -0.516  -0.512
 -0.507  -0.505  -0.504  -0.502  -0.488  -0.485  -0.478  -0.476
 -0.474  -0.473  -0.471  -0.468  -0.467  -0.465  -0.449  -0.445
 -0.444  -0.444  -0.438  -0.437  -0.434  -0.433  -0.432  -0.431
 -0.429  -0.427  -0.426  -0.424  -0.422  -0.420  -0.413  -0.413
 -0.411  -0.408  -0.407  -0.403  -0.402  -0.399  -0.399  -0.397
 -0.395  -0.390  -0.388  -0.388  -0.385  -0.384  -0.380  -0.378
 -0.377  -0.377  -0.375  -0.373  -0.368  -0.363  -0.361  -0.354
 -0.352  -0.347  -0.347  -0.345  -0.345  -0.343  -0.340  -0.339
 -0.337  -0.335  -0.332  -0.328  -0.327  -0.324  -0.321  -0.320
 -0.313  -0.310  -0.309  -0.306  -0.303  -0.303  -0.299  -0.298
 -0.296  -0.295  -0.291  -0.291  -0.288  -0.285  -0.283  -0.278
 -0.277  -0.275  -0.267  -0.265  -0.258  -0.253  -0.250  -0.247
 -0.242  -0.237  -0.230  -0.229  -0.198  -0.190

          Ground-State Mulliken Net Atomic Charges

     Atom                 Charge (a.u.)
  ----------------------------------------
      1 C                     0.261020
      2 C                    -0.119230
      3 N                    -0.470125
      4 C                    -0.098854
      5 C                     0.104219
      6 C                     0.019202
      7 C                     0.025198
      8 C                     0.062785
      9 C                     0.248370
     10 N                    -0.527554
     11 N                    -0.560102
     12 C                     0.211225
     13 C                     0.280674
     14 S                     0.616105
     15 N                    -0.554615
     16 C                    -0.232348
     17 S                     0.328823
     18 C                    -0.113406
     19 C                    -0.211969
     20 S                     0.287051
     21 C                     0.136760
     22 C                     0.060390
     23 C                    -0.295478
     24 C                    -0.056805
     25 N                    -0.438875
     26 S                     0.273302
     27 C                     0.127760
     28 C                    -0.310482
     29 C                    -0.209589
     30 H                     0.093253
     31 H                     0.104544
     32 H                     0.118374
     33 H                     0.120686
     34 H                     0.107955
     35 H                     0.120974
     36 H                     0.111639
     37 H                     0.129329
     38 H                     0.082806
     39 C                    -0.161256
     40 H                     0.114491
     41 H                     0.089165
     42 H                     0.115123
     43 C                    -0.186988
     44 H                     0.087419
     45 C                    -0.163972
     46 H                     0.093183
     47 H                     0.092354
     48 H                     0.091678
     49 C                    -0.180279
     50 H                     0.087269
     51 C                    -0.312819
     52 H                     0.085289
     53 H                     0.103377
     54 H                     0.101699
     55 H                     0.101497
     56 C                     0.265364
     57 C                    -0.118536
     58 N                    -0.476777
     59 C                    -0.059708
     60 C                     0.080577
     61 C                     0.023157
     62 C                     0.003783
     63 C                     0.037774
     64 C                     0.251184
     65 N                    -0.511832
     66 N                    -0.571074
     67 C                     0.197542
     68 C                     0.316667
     69 S                     0.605119
     70 N                    -0.542695
     71 C                    -0.214693
     72 S                     0.353527
     73 C                    -0.101286
     74 C                    -0.209224
     75 S                     0.258912
     76 C                     0.120267
     77 C                     0.073180
     78 C                    -0.303878
     79 C                    -0.090992
     80 N                    -0.430485
     81 S                     0.269707
     82 C                     0.119214
     83 C                    -0.315716
     84 C                    -0.224357
     85 H                     0.098544
     86 H                     0.122521
     87 H                     0.109997
     88 H                     0.118210
     89 H                     0.137923
     90 H                     0.114969
     91 H                     0.119089
     92 H                     0.146135
     93 H                     0.099260
     94 C                    -0.191878
     95 H                     0.121957
     96 H                     0.107372
     97 H                     0.093864
     98 C                    -0.178731
     99 H                     0.102627
    100 C                    -0.179615
    101 H                     0.088856
    102 H                     0.094161
    103 H                     0.088275
    104 C                    -0.188638
    105 H                     0.091261
    106 C                    -0.325817
    107 H                     0.087924
    108 H                     0.104252
    109 H                     0.113369
    110 H                     0.109148
  ----------------------------------------
  Sum of atomic charges =     0.000000

                    Cartesian Multipole Moments
 -----------------------------------------------------------------
    Charge (ESU x 10^10)
                 0.0000
    Dipole Moment (Debye)
         X      -0.3609      Y       1.2692      Z      -2.2719
       Tot       2.6273
    Quadrupole Moments (Debye-Ang)
        XX    -433.6087     XY       2.9296     YY    -420.8470
        XZ      -8.6887     YZ       1.5402     ZZ    -425.2342

 Total job time:  83.03s(wall), 891.01s(cpu)
        *  Thank you very much for using Q-Chem.  Have a nice day.  *
