 Q-Chem 4.4, Q-Chem, Inc., Pleasanton, CA (2016)
 Q-Chem 4.4.2 for Intel X86 Linux

User input:
--------------------------------------------------------------
$comment
SP
$end

$rem
MEM_STATIC 5000
MEM_TOTAL 20000
JOBTYPE SP
EXCHANGE B3LYP
BASIS 6-31g(d,p)
$end

$molecule
0 1
C           1.117000     19.255000     10.528000
C           2.376000     19.909000     10.614000
N           0.863000     18.314000      9.594000
C           3.320000     19.635000      9.628000
C           1.751000     18.055000      8.620000
C           3.014000     18.690000      8.585000
C           3.993000     18.294000      7.406000
C           5.389000     18.233000      7.631000
C           3.587000     18.029000      6.117000
N           6.322000     17.765000      6.749000
N           2.381000     18.142000      5.614000
C           4.516000     17.750000      5.121000
C           5.889000     17.563000      5.455000
S           2.459000     17.727000      4.020000
N           4.042000     17.542000      3.867000
C           6.973000     17.118000      4.565000
S           8.517000     16.296000      5.131000
C           7.284000     17.660000      3.271000
C           9.201000     16.336000      3.513000
S           6.482000     19.007000      2.502000
C           8.459000     17.164000      2.696000
C          10.481000     15.859000      3.238000
C           7.677000     18.802000      1.184000
C           8.674000     17.878000      1.447000
N          10.866000     15.700000      1.967000
S          11.499000     15.078000      4.419000
C          12.206000     15.326000      1.932000
C          12.725000     14.932000      3.159000
C          -0.060000     19.538000     11.499000
H           2.501000     20.613000     11.432000
H           4.293000     20.118000      9.598000
H           1.443000     17.386000      7.817000
H           5.735000     18.389000      8.652000
H           7.626000     19.502000      0.361000
H           9.516000     17.681000      0.793000
H          12.669000     15.291000      0.955000
H          13.657000     14.405000      3.314000
H          -0.191000     20.624000     11.412000
C           0.118000     19.110000     12.963000
H          -0.978000     19.126000     11.061000
H          -0.749000     19.449000     13.543000
H           0.992000     19.667000     13.323000
C           0.276000     17.569000     13.188000
H          -0.648000     17.066000     12.878000
C           0.491000     17.153000     14.653000
H           1.118000     17.283000     12.546000
H          -0.487000     17.267000     15.136000
H           1.096000     17.930000     15.136000
C           1.062000     15.709000     14.729000
H           0.346000     15.095000     14.169000
C           1.305000     15.356000     16.172000
H           1.963000     15.625000     14.108000
H           1.749000     16.190000     16.730000
H           1.820000     14.407000     16.364000
H           0.339000     15.197000     16.668000
C          20.719000     17.532000     -2.250000
C          20.825000     18.754000     -2.942000
N          19.782000     17.347000     -1.258000
C          19.792000     19.652000     -2.828000
C          18.865000     18.272000     -1.023000
C          18.740000     19.392000     -1.889000
C          17.456000     20.166000     -1.877000
C          16.242000     19.455000     -1.676000
C          17.344000     21.609000     -2.140000
N          15.069000     20.089000     -1.366000
N          18.344000     22.451000     -2.486000
C          16.100000     22.165000     -1.897000
C          14.938000     21.399000     -1.519000
S          17.602000     23.925000     -2.614000
N          16.130000     23.517000     -2.043000
C          13.606000     22.032000     -1.229000
S          13.036000     23.596000     -1.829000
C          12.594000     21.465000     -0.528000
C          11.550000     23.590000     -0.948000
S          12.593000     20.046000      0.413000
C          11.430000     22.369000     -0.365000
C          10.540000     24.607000     -1.017000
C          10.931000     20.534000      1.069000
C          10.517000     21.781000      0.549000
N          10.809000     25.527000     -1.956000
S           8.953000     24.677000     -0.283000
C           9.623000     26.306000     -2.148000
C           8.579000     26.085000     -1.286000
C          21.675000     16.326000     -2.368000
H          21.591000     18.961000     -3.684000
H          19.764000     20.536000     -3.459000
H          18.116000     18.145000     -0.242000
H          16.260000     18.395000     -1.429000
H          10.514000     19.726000      1.654000
H           9.552000     22.163000      0.861000
H           9.701000     27.043000     -2.937000
H           7.605000     26.548000     -1.204000
H          22.684000     16.633000     -2.668000
C          21.216000     15.438000     -3.594000
H          21.758000     15.688000     -1.480000
H          20.131000     15.303000     -3.514000
H          21.583000     14.404000     -3.616000
C          21.580000     16.119000     -4.949000
H          20.769000     16.832000     -5.145000
C          21.679000     15.069000     -6.127000
H          22.546000     16.615000     -4.793000
H          20.773000     14.468000     -6.276000
H          22.503000     14.395000     -5.862000
C          22.042000     15.614000     -7.515000
H          21.118000     16.048000     -7.917000
C          22.560000     14.598000     -8.681000
H          22.720000     16.461000     -7.354000
H          23.430000     14.111000     -8.223000
H          22.838000     15.218000     -9.542000
H          21.878000     13.749000     -8.816000
$end

--------------------------------------------------------------

             Standard Nuclear Orientation (Angstroms)
    I     Atom           X                Y                Z
 ----------------------------------------------------------------
    1      C     -12.4799492843    -0.6008121906    -0.8105972926
    2      C     -11.5181387604    -0.7677382065    -1.8436748410
    3      N     -12.1469771522    -0.1142603779     0.4037955157
    4      C     -10.1830903047    -0.5204936971    -1.5355778214
    5      C     -10.8619727764     0.1054695895     0.7274983049
    6      C      -9.8221439914    -0.0794674225    -0.2128066454
    7      C      -8.3460534130     0.2306104701     0.2670957455
    8      C      -7.4089962756     0.7923316903    -0.6326571051
    9      C      -7.8665295594    -0.0460255832     1.5280919262
   10      N      -6.1596839291     1.2420523970    -0.3095364669
   11      N      -8.4783381849    -0.6783704496     2.5007399487
   12      C      -6.5371271996     0.1979957167     1.8537312525
   13      C      -5.6941090022     0.8986963976     0.9426918051
   14      S      -7.4409786882    -0.7593859767     3.7799845535
   15      N      -6.1288515511    -0.1408307467     3.1023159003
   16      C      -4.3213040041     1.3728055816     1.1789288018
   17      S      -3.5302770472     2.7687786370     0.2814258311
   18      C      -3.2336134250     0.5936264550     1.7030758165
   19      C      -1.9803064016     2.4615183055     1.0499062060
   20      S      -3.2897901254    -1.1026466785     2.1135336520
   21      C      -1.9914159632     1.2369799007     1.6855313099
   22      C      -0.8441667794     3.2109850774     0.7515099652
   23      C      -1.5472166898    -0.9383765574     2.4925153779
   24      C      -0.9959598732     0.2862662507     2.1558851435
   25      N       0.2437148336     3.0931562384     1.5206503690
   26      S      -0.8450807276     4.5894604946    -0.3165961573
   27      C       1.2817525976     3.8409115434     0.9728907462
   28      C       0.8886546625     4.7277976313    -0.0216106769
   29      C     -13.9856496287    -0.9339671521    -0.9841865909
   30      H     -11.8926273364    -1.1163574962    -2.8021047536
   31      H      -9.3804872472    -0.6583007950    -2.2551301377
   32      H     -10.6366512999     0.3695169397     1.7603309289
   33      H      -7.7731797360     1.0676637553    -1.6216240718
   34      H      -1.0266623567    -1.8320954336     2.8090904189
   35      H       0.0559711599     0.5319044648     2.2485780201
   36      H       2.2528154817     3.7243600746     1.4350331812
   37      H       1.4816142013     5.5420791239    -0.4162277521
   38      H     -13.9663309146    -1.9791299625    -1.3179342307
   39      C     -14.7941830801    -0.0524918000    -1.9472228631
   40      H     -14.4470471534    -0.9834790654     0.0102845724
   41      H     -15.8103169437    -0.4560932236    -2.0343311990
   42      H     -14.3090202741    -0.1708237822    -2.9241259257
   43      C     -14.9070595546     1.4523183459    -1.5311996351
   44      H     -15.4591298351     1.5213329563    -0.5860327774
   45      C     -15.6868065820     2.3349294832    -2.5203902909
   46      H     -13.8680964743     1.7816967149    -1.4087675815
   47      H     -16.7417169956     2.0698306501    -2.3801917602
   48      H     -15.4741101281     1.9708718196    -3.5329441098
   49      C     -15.3799185589     3.8375327074    -2.2655250479
   50      H     -15.6203227352     3.9967634937    -1.2071756780
   51      C     -16.1202880333     4.6656152132    -3.2814184502
   52      H     -14.2961102845     4.0099107097    -2.2775020469
   53      H     -16.0760859684     4.2221361935    -4.2841290448
   54      H     -15.8995815931     5.7397936963    -3.2923387899
   55      H     -17.1907044791     4.6539995308    -3.0394955109
   56      C      10.6451085726     3.2755072669    -1.6414183193
   57      C      11.2368220962     2.0005692713    -1.7296918335
   58      N       9.2837447968     3.4455366919    -1.7598947503
   59      C      10.4190449417     0.9013486923    -1.6325134187
   60      C       8.4814657681     2.3948740679    -1.8246667388
   61      C       8.9972804064     1.0867951909    -1.6176742015
   62      C       8.0414911366    -0.0104044701    -1.2564322112
   63      C       6.9306505338     0.3082795617    -0.4292734337
   64      C       8.2079482957    -1.4239318968    -1.6281770539
   65      N       5.8650234626    -0.5383623175    -0.2822310124
   66      N       9.2520343558    -1.9714759455    -2.2905665269
   67      C       7.1246503283    -2.2428228042    -1.3605874510
   68      C       5.9394873723    -1.8050487602    -0.6651547409
   69      S       8.8471016625    -3.5705165286    -2.4273975443
   70      N       7.3220862888    -3.4945724464    -1.8548160163
   71      C       4.7631104698    -2.7068214841    -0.4162444404
   72      S       4.7937591499    -4.4746844163    -0.3475617561
   73      C       3.5032834625    -2.3039293174    -0.1203596424
   74      C       3.0874836236    -4.6718962549    -0.1628340666
   75      S       2.8244145983    -0.7437310537    -0.1832996397
   76      C       2.5535081127    -3.4350314968     0.0108487590
   77      C       2.4098441145    -5.9260403838     0.0017174443
   78      C       1.1532610750    -1.5087321348     0.0463593410
   79      C       1.2352329897    -2.9180536993     0.1087959744
   80      N       3.2648129442    -6.9520465805     0.1314154955
   81      S       0.7223222093    -6.2676455488     0.3144485281
   82      C       2.5135607747    -8.0842476062     0.5831255964
   83      C       1.1487860926    -7.9545472729     0.6320018769
   84      C      11.3869387326     4.6266152615    -1.5608503305
   85      H      12.3097803615     1.8320958089    -1.7063197689
   86      H      10.8479278795    -0.0930811211    -1.5455089822
   87      H       7.4020414192     2.5083907241    -1.9197879443
   88      H       6.7247187945     1.3425859099    -0.1595782416
   89      H       0.4129482283    -0.7365483204     0.2033531170
   90      H       0.3142426615    -3.4717689012     0.2490432217
   91      H       3.1149993398    -8.9604774661     0.7887147135
   92      H       0.3703599565    -8.6531683775     0.9072296062
   93      H      12.3764800195     4.5774273589    -2.0306573033
   94      C      11.7478022674     4.9131741863    -0.0475881286
   95      H      10.8541033653     5.4941190501    -1.9682821015
   96      H      10.8481420297     4.7174521475     0.5475205507
   97      H      11.9831395124     5.9529906850     0.2126560456
   98      C      12.9234026348     4.0071785719     0.4313875731
   99      H      12.4613588640     3.0511675933     0.7089926213
  100      C      13.6768003432     4.6295640593     1.6743731716
  101      H      13.6044293112     3.9113818983    -0.4233250472
  102      H      13.0314887832     4.8408785387     2.5364388195
  103      H      14.1079170942     5.5752938284     1.3233595668
  104      C      14.8640859052     3.8357828580     2.2361581827
  105      H      14.4269549993     3.0334963609     2.8436027872
  106      C      15.9368367067     4.5629734877     3.2263781108
  107      H      15.3400882134     3.3348610766     1.3843875730
  108      H      16.2936666899     5.4128272469     2.6311857460
  109      H      16.7314617252     3.8333575596     3.4244606126
  110      H      15.4412648507     5.0722540632     4.0625550244
 ----------------------------------------------------------------

   10   -5663.4944848208      3.35E-06 Convergence criterion met
 Total energy in the final basis set = -5663.4944848208

                    Orbital Energies (a.u.)
 --------------------------------------------------------------

 Alpha MOs
 -- Occupied --
-88.992 -88.989 -88.931 -88.926 -88.926 -88.917 -88.914 -88.904
-14.391 -14.387 -14.385 -14.378 -14.356 -14.350 -14.346 -14.342
-14.332 -14.326 -10.272 -10.268 -10.267 -10.266 -10.260 -10.259
-10.256 -10.254 -10.250 -10.243 -10.242 -10.242 -10.239 -10.239
-10.236 -10.236 -10.235 -10.234 -10.234 -10.233 -10.232 -10.232
-10.232 -10.232 -10.231 -10.229 -10.226 -10.226 -10.225 -10.220
-10.216 -10.216 -10.212 -10.211 -10.211 -10.208 -10.207 -10.203
-10.192 -10.186 -10.185 -10.185 -10.183 -10.182 -10.181 -10.180
-10.179 -10.175 -10.174 -10.170  -8.048  -8.045  -7.992  -7.987
 -7.985  -7.977  -7.974  -7.964  -6.013  -6.010  -6.008  -6.006
 -6.004  -6.002  -5.956  -5.952  -5.951  -5.949  -5.949  -5.948
 -5.946  -5.944  -5.942  -5.941  -5.938  -5.938  -5.934  -5.933
 -5.930  -5.928  -5.925  -5.921  -1.051  -1.035  -0.964  -0.958
 -0.956  -0.951  -0.939  -0.934  -0.917  -0.908  -0.907  -0.898
 -0.845  -0.835  -0.827  -0.827  -0.810  -0.806  -0.804  -0.804
 -0.803  -0.801  -0.798  -0.796  -0.784  -0.783  -0.768  -0.765
 -0.750  -0.747  -0.743  -0.738  -0.724  -0.712  -0.710  -0.708
 -0.698  -0.693  -0.676  -0.674  -0.654  -0.653  -0.648  -0.643
 -0.637  -0.633  -0.627  -0.622  -0.614  -0.610  -0.599  -0.596
 -0.592  -0.589  -0.587  -0.581  -0.579  -0.577  -0.569  -0.568
 -0.555  -0.542  -0.541  -0.539  -0.524  -0.523  -0.515  -0.511
 -0.508  -0.506  -0.503  -0.502  -0.488  -0.485  -0.478  -0.476
 -0.474  -0.473  -0.471  -0.467  -0.466  -0.461  -0.449  -0.446
 -0.442  -0.440  -0.438  -0.438  -0.436  -0.434  -0.434  -0.432
 -0.431  -0.428  -0.426  -0.422  -0.420  -0.417  -0.416  -0.413
 -0.408  -0.408  -0.404  -0.402  -0.400  -0.400  -0.399  -0.397
 -0.396  -0.393  -0.391  -0.389  -0.388  -0.385  -0.383  -0.379
 -0.378  -0.377  -0.375  -0.374  -0.369  -0.368  -0.367  -0.355
 -0.355  -0.351  -0.348  -0.346  -0.346  -0.345  -0.342  -0.342
 -0.340  -0.337  -0.334  -0.329  -0.327  -0.325  -0.321  -0.319
 -0.315  -0.313  -0.310  -0.308  -0.306  -0.304  -0.304  -0.302
 -0.299  -0.299  -0.293  -0.290  -0.289  -0.286  -0.284  -0.282
 -0.275  -0.275  -0.270  -0.265  -0.257  -0.256  -0.251  -0.246
 -0.244  -0.237  -0.236  -0.229  -0.197  -0.196

          Ground-State Mulliken Net Atomic Charges

     Atom                 Charge (a.u.)
  ----------------------------------------
      1 C                     0.262592
      2 C                    -0.112883
      3 N                    -0.481794
      4 C                    -0.083409
      5 C                     0.090758
      6 C                     0.033769
      7 C                     0.032933
      8 C                     0.050075
      9 C                     0.282276
     10 N                    -0.498931
     11 N                    -0.570318
     12 C                     0.174624
     13 C                     0.239152
     14 S                     0.608437
     15 N                    -0.521386
     16 C                    -0.193503
     17 S                     0.313926
     18 C                    -0.147359
     19 C                    -0.213582
     20 S                     0.268681
     21 C                     0.173879
     22 C                     0.047588
     23 C                    -0.293397
     24 C                    -0.079897
     25 N                    -0.432302
     26 S                     0.272191
     27 C                     0.117345
     28 C                    -0.307754
     29 C                    -0.226021
     30 H                     0.095784
     31 H                     0.101292
     32 H                     0.120645
     33 H                     0.111126
     34 H                     0.135240
     35 H                     0.137007
     36 H                     0.120507
     37 H                     0.135924
     38 H                     0.099738
     39 C                    -0.186068
     40 H                     0.118426
     41 H                     0.093926
     42 H                     0.087166
     43 C                    -0.172305
     44 H                     0.097397
     45 C                    -0.177992
     46 H                     0.099858
     47 H                     0.091506
     48 H                     0.086654
     49 C                    -0.168278
     50 H                     0.097386
     51 C                    -0.318023
     52 H                     0.096890
     53 H                     0.105689
     54 H                     0.097178
     55 H                     0.102086
     56 C                     0.265744
     57 C                    -0.118783
     58 N                    -0.477498
     59 C                    -0.059990
     60 C                     0.079917
     61 C                     0.023550
     62 C                     0.004392
     63 C                     0.037630
     64 C                     0.250284
     65 N                    -0.510978
     66 N                    -0.570572
     67 C                     0.197948
     68 C                     0.315976
     69 S                     0.605076
     70 N                    -0.543276
     71 C                    -0.215351
     72 S                     0.349271
     73 C                    -0.100681
     74 C                    -0.208245
     75 S                     0.255345
     76 C                     0.117063
     77 C                     0.065852
     78 C                    -0.300910
     79 C                    -0.101066
     80 N                    -0.430964
     81 S                     0.274267
     82 C                     0.111942
     83 C                    -0.309178
     84 C                    -0.224537
     85 H                     0.098668
     86 H                     0.122703
     87 H                     0.109063
     88 H                     0.116124
     89 H                     0.144669
     90 H                     0.114539
     91 H                     0.116570
     92 H                     0.143585
     93 H                     0.099449
     94 C                    -0.191621
     95 H                     0.121545
     96 H                     0.106869
     97 H                     0.093711
     98 C                    -0.178530
     99 H                     0.102572
    100 C                    -0.179377
    101 H                     0.088996
    102 H                     0.094023
    103 H                     0.088285
    104 C                    -0.189186
    105 H                     0.091335
    106 C                    -0.325569
    107 H                     0.088052
    108 H                     0.104264
    109 H                     0.113472
    110 H                     0.109111
  ----------------------------------------
  Sum of atomic charges =     0.000000

                    Cartesian Multipole Moments
 -----------------------------------------------------------------
    Charge (ESU x 10^10)
                 0.0000
    Dipole Moment (Debye)
         X       0.3845      Y      -1.9329      Z      -0.4377
       Tot       2.0188
    Quadrupole Moments (Debye-Ang)
        XX    -406.7897     XY      18.0934     YY    -423.1554
        XZ      14.3524     YZ      -5.9882     ZZ    -447.0258

 Total job time:  92.04s(wall), 982.36s(cpu)
        *  Thank you very much for using Q-Chem.  Have a nice day.  *
