 Q-Chem 4.4, Q-Chem, Inc., Pleasanton, CA (2016)
 Q-Chem 4.4.2 for Intel X86 Linux

User input:
--------------------------------------------------------------
$comment
SP
$end

$rem
MEM_STATIC 5000
MEM_TOTAL 20000
JOBTYPE SP
EXCHANGE B3LYP
BASIS 6-31g(d,p)
$end

$molecule
0 1
C          27.326000     30.690000      0.488000
C          25.995000     30.573000      1.046000
N          27.772000     29.932000     -0.494000
C          25.102000     29.674000      0.466000
C          26.872000     29.102000     -1.078000
C          25.502000     28.902000     -0.641000
C          24.556000     27.939000     -1.386000
C          25.082000     26.839000     -2.117000
C          23.099000     28.042000     -1.451000
N          24.350000     25.985000     -2.832000
N          22.370000     29.043000     -0.894000
C          22.375000     27.130000     -2.234000
C          23.017000     26.163000     -3.012000
S          20.856000     28.796000     -1.391000
N          21.060000     27.459000     -2.378000
C          22.313000     25.174000     -3.895000
S          20.591000     25.142000     -4.109000
C          22.872000     24.090000     -4.585000
C          20.707000     23.797000     -5.286000
S          24.564000     23.510000     -4.574000
C          21.968000     23.317000     -5.348000
C          19.644000     23.346000     -6.033000
C          24.088000     22.155000     -5.649000
C          22.648000     22.183000     -5.877000
N          18.879000     24.239000     -6.544000
S          19.247000     21.715000     -6.430000
C          17.745000     23.670000     -7.060000
C          17.770000     22.306000     -7.135000
C          28.464000     31.572000      1.074000
H          25.668000     31.196000      1.873000
H          24.112000     29.558000      0.897000
H          27.294000     28.560000     -1.924000
H          26.147000     26.616000     -2.072000
H          24.855000     21.454000     -5.951000
H          22.188000     21.487000     -6.569000
H          16.931000     24.284000     -7.423000
H          17.046000     21.541000     -7.383000
H          29.178000     31.964000      0.339000
C          29.126000     30.814000      2.201000
H          28.006000     32.452000      1.541000
H          29.186000     29.742000      1.979000
H          28.446000     30.822000      3.061000
C          30.585000     31.311000      2.418000
H          31.412000     30.848000      1.866000
C          31.086000     30.997000      3.831000
H          30.487000     32.381000      2.198000
H          30.918000     29.917000      3.920000
H          30.598000     31.582000      4.621000
C          32.635000     31.220000      3.941000
H          33.073000     30.648000      3.114000
C          33.101000     30.535000      5.286000
H          32.851000     32.286000      3.797000
H          32.672000     31.067000      6.145000
H          34.193000     30.614000      5.352000
H          32.890000     29.462000      5.371000
C          14.253000      8.128000     -3.465000
C          13.014000      8.702000     -3.215000
N          15.417000      8.775000     -3.470000
C          12.973000     10.111000     -3.189000
C          15.331000     10.146000     -3.430000
C          14.169000     10.900000     -3.285000
C          14.284000     12.406000     -3.402000
C          15.261000     13.020000     -4.135000
C          13.329000     13.231000     -2.784000
N          15.413000     14.341000     -4.160000
N          12.180000     12.806000     -2.190000
C          13.480000     14.620000     -2.848000
C          14.599000     15.189000     -3.507000
S          11.494000     14.180000     -1.562000
N          12.545000     15.275000     -2.108000
C          14.707000     16.588000     -3.813000
S          13.452000     17.960000     -3.590000
C          15.824000     17.175000     -4.393000
C          14.493000     19.092000     -4.493000
S          17.481000     16.427000     -4.554000
C          15.735000     18.470000     -4.687000
C          14.214000     20.458000     -4.928000
C          17.990000     17.948000     -5.346000
C          16.984000     18.875000     -5.384000
N          15.204000     21.277000     -5.154000
S          12.630000     21.163000     -4.936000
C          14.798000     22.595000     -5.140000
C          13.430000     22.719000     -5.121000
C          14.308000      6.675000     -3.827000
H          12.083000      8.143000     -3.232000
H          11.980000     10.551000     -3.187000
H          16.270000     10.681000     -3.562000
H          15.968000     12.519000     -4.795000
H          18.967000     18.056000     -5.798000
H          17.061000     19.889000     -5.760000
H          15.578000     23.343000     -5.193000
H          12.883000     23.653000     -5.135000
H          15.289000      6.445000     -4.262000
C          13.234000      6.154000     -4.758000
H          14.139000      6.075000     -2.925000
H          13.111000      6.953000     -5.500000
H          12.216000      6.071000     -4.356000
C          13.467000      4.692000     -5.237000
H          14.266000      4.177000     -4.691000
C          13.933000      4.666000     -6.710000
H          12.547000      4.125000     -5.051000
H          14.029000      3.603000     -6.963000
H          14.951000      5.074000     -6.721000
C          13.051000      5.237000     -7.873000
H          12.212000      4.532000     -7.846000
C          13.825000      5.443000     -9.159000
H          12.681000      6.235000     -7.605000
H          13.211000      5.847000     -9.973000
H          14.310000      4.474000     -9.328000
H          14.592000      6.204000     -8.968000
$end

--------------------------------------------------------------

             Standard Nuclear Orientation (Angstroms)
    I     Atom           X                Y                Z
 ----------------------------------------------------------------
    1      C     -13.6293944027    -1.1419969271    -0.6569618031
    2      C     -12.8953843781    -0.5071960602    -1.7316111148
    3      N     -13.0791601486    -1.5033249934     0.4851801733
    4      C     -11.5566413779    -0.1791498446    -1.5261777681
    5      C     -11.7910385933    -1.1280527625     0.6848539363
    6      C     -10.9446236378    -0.4660086357    -0.2914392048
    7      C      -9.4921591876    -0.0719170731     0.0437456118
    8      C      -8.7620981253    -0.7925452934     1.0279929452
    9      C      -8.7408845159     1.0329059561    -0.5500855441
   10      N      -7.5235891009    -0.4957574387     1.4209017969
   11      N      -9.2428394115     1.9073456409    -1.4595290665
   12      C      -7.4469561123     1.3174056051    -0.0876807039
   13      C      -6.8797046376     0.6132594171     0.9776553512
   14      S      -8.0935421057     3.0203179383    -1.6610789811
   15      N      -6.9414466562     2.4883825735    -0.5687993269
   16      C      -5.5155720393     0.8788301338     1.5451414293
   17      S      -4.4772960019     2.1494086746     0.9797061618
   18      C      -4.8250222755     0.1279961821     2.5058840590
   19      C      -3.2317543200     1.7511322853     2.2035573931
   20      S      -5.3154249211    -1.4005982732     3.2947371736
   21      C      -3.5451058413     0.6121565692     2.8584697097
   22      C      -2.1237059776     2.5298931151     2.4425959690
   23      C      -3.7483338233    -1.4325461607     4.1673372102
   24      C      -2.9143559254    -0.3178743028     3.7333377688
   25      N      -2.3083039045     3.7980677442     2.4806973521
   26      S      -0.5133037528     2.0054435242     2.7696071324
   27      C      -1.1110928730     4.4632830412     2.4928363315
   28      C      -0.0161515261     3.6712762492     2.6942679283
   29      C     -15.0937522801    -1.6536389000    -0.7581670320
   30      H     -13.3738398614    -0.2459119576    -2.6706520980
   31      H     -10.9905828157     0.2694576921    -2.3371315166
   32      H     -11.4273584919    -1.4002058040     1.6754262485
   33      H      -9.1922504152    -1.6862687469     1.4776666004
   34      H      -3.5587079350    -2.2597201414     4.8386934704
   35      H      -1.9604189342    -0.1271550814     4.2113653783
   36      H      -1.0734125076     5.5411358454     2.4024232651
   37      H       1.0544371782     3.8259566190     2.6656530810
   38      H     -15.6657907703    -1.6235309874     0.1775415120
   39      C     -15.0807804950    -3.0195557425    -1.4039533065
   40      H     -15.6336268668    -1.0034669885    -1.4567834620
   41      H     -14.2108538099    -3.6041949807    -1.0822507673
   42      H     -14.8734268144    -2.8879701714    -2.4724820561
   43      C     -16.3444736907    -3.8332413208    -0.9992629475
   44      H     -16.3303364323    -4.4606824326    -0.0997520865
   45      C     -16.6533138681    -4.9404622183    -2.0116095428
   46      H     -17.1042938949    -3.0443199579    -0.9428684404
   47      H     -15.7097550554    -5.4964526930    -2.0674339008
   48      H     -17.0032620047    -4.5741644627    -2.9851757994
   49      C     -17.7268315110    -5.9353896783    -1.4468890635
   50      H     -17.3518446835    -6.2441131385    -0.4635113617
   51      C     -17.7049189044    -7.2095657501    -2.3803777757
   52      H     -18.6753729730    -5.3989255410    -1.3195182495
   53      H     -18.0591931254    -6.9436865049    -3.3847402618
   54      H     -18.3967007280    -7.9524378886    -1.9648782037
   55      H     -16.7419548165    -7.7297703376    -2.4522272883
   56      C      12.6169049024    -3.7241663699    -0.8507548843
   57      C      12.8054063285    -2.6211892616    -1.6723421960
   58      N      11.4428649263    -4.1534111527    -0.3915065298
   59      C      11.6930355603    -1.7716166543    -1.8411487689
   60      C      10.3835807363    -3.3004966631    -0.5892206629
   61      C      10.4049736848    -2.1025825974    -1.2993820762
   62      C       9.1550465555    -1.2468519714    -1.2804805610
   63      C       8.2563023848    -1.2702586843    -0.2506625958
   64      C       8.9096300329    -0.3430997454    -2.3281334828
   65      N       7.1158111392    -0.5867834792    -0.2808513785
   66      N       9.7810695460    -0.0317528858    -3.3267917366
   67      C       7.7228342815     0.3969880909    -2.3300927998
   68      C       6.7655859843     0.2178833236    -1.2996559119
   69      S       8.9416578693     1.0040197136    -4.3144248463
   70      N       7.5784896091     1.1370673446    -3.4624784734
   71      C       5.6426817657     1.0918683174    -1.1053948853
   72      S       5.2053337078     2.6878550277    -1.9821451900
   73      C       4.6565549734     0.8928037465    -0.1480102990
   74      C       3.8884576311     2.9942330952    -0.8191817862
   75      S       4.3545417894    -0.6408559489     0.7941945489
   76      C       3.7257393392     1.8381669418    -0.0419316293
   77      C       3.0355394876     4.1712868042    -0.6774171699
   78      C       3.0035355494     0.2217488073     1.5882229954
   79      C       2.8342832000     1.4868606478     1.0946091046
   80      N       1.8651164150     4.0545405030    -0.1131325499
   81      S       3.3642074197     5.6969908418    -1.4326320931
   82      C       1.0338109240     5.1102275888    -0.4239571911
   83      C       1.7015318172     6.1312726559    -1.0554449421
   84      C      13.8228862407    -4.4734720033    -0.3717683716
   85      H      13.7818758781    -2.2938628225    -2.0171546390
   86      H      11.8992658739    -0.8191584710    -2.3206750630
   87      H       9.4512138376    -3.5872594214    -0.1056618903
   88      H       8.3898303524    -1.7925847269     0.6958022937
   89      H       2.4553587118    -0.2139982554     2.4129190922
   90      H       2.0515029434     2.1836445375     1.3725448539
   91      H       0.0046070594     5.0282417836    -0.1003359111
   92      H       1.2632637694     7.0701836122    -1.3686993666
   93      H      13.5402622244    -5.1183501814     0.4700996708
   94      C      15.0295437476    -3.6538528370     0.0330526793
   95      H      14.2217494196    -5.0746109097    -1.1974227664
   96      H      14.6040682597    -2.7960847910     0.5690550938
   97      H      15.5906218110    -3.1544744941    -0.7673407724
   98      C      16.1654850300    -4.4854434930     0.6958259315
   99      H      16.0207800259    -5.5684755005     0.6072588242
  100      C      16.2139511721    -4.2300309191     2.2189728220
  101      H      17.1021764437    -4.2526946845     0.1753240703
  102      H      17.0624776737    -4.8219569957     2.5834180113
  103      H      15.3151072158    -4.6958994813     2.6408199804
  104      C      16.4820728982    -2.8062187485     2.8168052758
  105      H      17.5151529701    -2.6471216242     2.4864892605
  106      C      16.1340006232    -2.7047396209     4.2878102650
  107      H      15.8371502655    -2.0673293974     2.3240118863
  108      H      16.3163004201    -1.7079490658     4.7073139877
  109      H      16.6713437253    -3.5469192879     4.7402954019
  110      H      15.0536187160    -2.8687431325     4.3866474179
 ----------------------------------------------------------------

   10   -5663.4841739209      4.29E-06 Convergence criterion met
 Total energy in the final basis set = -5663.4841739209

                    Orbital Energies (a.u.)
 --------------------------------------------------------------

 Alpha MOs
 -- Occupied --
-88.991 -88.991 -88.935 -88.933 -88.922 -88.922 -88.910 -88.907
-14.392 -14.389 -14.388 -14.382 -14.349 -14.345 -14.344 -14.335
-14.330 -14.329 -10.276 -10.266 -10.265 -10.263 -10.257 -10.255
-10.255 -10.254 -10.254 -10.249 -10.242 -10.240 -10.238 -10.237
-10.237 -10.236 -10.235 -10.233 -10.232 -10.232 -10.230 -10.230
-10.228 -10.228 -10.225 -10.225 -10.224 -10.224 -10.224 -10.215
-10.212 -10.212 -10.210 -10.209 -10.209 -10.204 -10.197 -10.196
-10.183 -10.183 -10.181 -10.179 -10.178 -10.177 -10.176 -10.176
-10.175 -10.174 -10.173 -10.173  -8.047  -8.046  -7.995  -7.992
 -7.984  -7.981  -7.969  -7.966  -6.012  -6.012  -6.006  -6.006
 -6.004  -6.004  -5.958  -5.957  -5.955  -5.953  -5.952  -5.949
 -5.948  -5.945  -5.944  -5.942  -5.941  -5.938  -5.933  -5.931
 -5.930  -5.927  -5.925  -5.921  -1.037  -1.036  -0.984  -0.980
 -0.964  -0.957  -0.942  -0.937  -0.910  -0.910  -0.903  -0.900
 -0.835  -0.835  -0.832  -0.827  -0.812  -0.810  -0.809  -0.808
 -0.808  -0.805  -0.799  -0.795  -0.785  -0.780  -0.772  -0.769
 -0.753  -0.748  -0.737  -0.736  -0.731  -0.718  -0.712  -0.706
 -0.695  -0.692  -0.677  -0.676  -0.653  -0.650  -0.648  -0.642
 -0.640  -0.632  -0.625  -0.624  -0.612  -0.606  -0.602  -0.602
 -0.597  -0.596  -0.585  -0.584  -0.579  -0.577  -0.570  -0.555
 -0.554  -0.546  -0.543  -0.538  -0.526  -0.523  -0.518  -0.513
 -0.508  -0.506  -0.500  -0.496  -0.488  -0.486  -0.480  -0.478
 -0.473  -0.472  -0.470  -0.469  -0.468  -0.464  -0.454  -0.452
 -0.448  -0.446  -0.442  -0.440  -0.438  -0.435  -0.435  -0.433
 -0.429  -0.428  -0.424  -0.421  -0.419  -0.418  -0.417  -0.414
 -0.414  -0.411  -0.406  -0.406  -0.401  -0.398  -0.398  -0.397
 -0.395  -0.393  -0.392  -0.390  -0.389  -0.387  -0.385  -0.385
 -0.384  -0.373  -0.373  -0.372  -0.370  -0.360  -0.356  -0.355
 -0.352  -0.349  -0.348  -0.347  -0.346  -0.346  -0.344  -0.343
 -0.341  -0.341  -0.333  -0.330  -0.329  -0.329  -0.318  -0.316
 -0.315  -0.313  -0.311  -0.308  -0.304  -0.303  -0.299  -0.299
 -0.296  -0.295  -0.294  -0.292  -0.285  -0.283  -0.280  -0.277
 -0.271  -0.269  -0.268  -0.267  -0.257  -0.255  -0.254  -0.253
 -0.248  -0.242  -0.234  -0.229  -0.195  -0.195

          Ground-State Mulliken Net Atomic Charges

     Atom                 Charge (a.u.)
  ----------------------------------------
      1 C                     0.245322
      2 C                    -0.125722
      3 N                    -0.454784
      4 C                    -0.067482
      5 C                     0.058297
      6 C                     0.036414
      7 C                     0.041376
      8 C                     0.059406
      9 C                     0.208907
     10 N                    -0.518502
     11 N                    -0.543276
     12 C                     0.200556
     13 C                     0.314639
     14 S                     0.607472
     15 N                    -0.555967
     16 C                    -0.222554
     17 S                     0.361466
     18 C                    -0.144158
     19 C                    -0.230843
     20 S                     0.287056
     21 C                     0.210452
     22 C                     0.022568
     23 C                    -0.301953
     24 C                    -0.113409
     25 N                    -0.407364
     26 S                     0.266520
     27 C                     0.096589
     28 C                    -0.296799
     29 C                    -0.221365
     30 H                     0.093765
     31 H                     0.117430
     32 H                     0.101538
     33 H                     0.117128
     34 H                     0.140235
     35 H                     0.105505
     36 H                     0.111420
     37 H                     0.152065
     38 H                     0.119439
     39 C                    -0.169720
     40 H                     0.091551
     41 H                     0.107204
     42 H                     0.094823
     43 C                    -0.178351
     44 H                     0.099062
     45 C                    -0.172339
     46 H                     0.088962
     47 H                     0.093850
     48 H                     0.088669
     49 C                    -0.187666
     50 H                     0.092561
     51 C                    -0.320389
     52 H                     0.099184
     53 H                     0.104032
     54 H                     0.096689
     55 H                     0.106762
     56 C                     0.275281
     57 C                    -0.100827
     58 N                    -0.494086
     59 C                    -0.082528
     60 C                     0.047902
     61 C                     0.063608
     62 C                     0.035792
     63 C                     0.052706
     64 C                     0.245360
     65 N                    -0.511886
     66 N                    -0.574889
     67 C                     0.164560
     68 C                     0.294737
     69 S                     0.608954
     70 N                    -0.543929
     71 C                    -0.201912
     72 S                     0.312393
     73 C                    -0.114478
     74 C                    -0.228593
     75 S                     0.271177
     76 C                     0.161188
     77 C                     0.067430
     78 C                    -0.307630
     79 C                    -0.047533
     80 N                    -0.433344
     81 S                     0.268560
     82 C                     0.128220
     83 C                    -0.320473
     84 C                    -0.223803
     85 H                     0.097863
     86 H                     0.115772
     87 H                     0.096480
     88 H                     0.124322
     89 H                     0.132113
     90 H                     0.113279
     91 H                     0.127880
     92 H                     0.135161
     93 H                     0.117698
     94 C                    -0.181891
     95 H                     0.112099
     96 H                     0.100428
     97 H                     0.087104
     98 C                    -0.198944
     99 H                     0.102135
    100 C                    -0.177601
    101 H                     0.089815
    102 H                     0.083774
    103 H                     0.090432
    104 C                    -0.170654
    105 H                     0.090838
    106 C                    -0.309930
    107 H                     0.089624
    108 H                     0.103277
    109 H                     0.103141
    110 H                     0.107559
  ----------------------------------------
  Sum of atomic charges =     0.000000

                    Cartesian Multipole Moments
 -----------------------------------------------------------------
    Charge (ESU x 10^10)
                 0.0000
    Dipole Moment (Debye)
         X       1.7919      Y       3.1884      Z      -2.6166
       Tot       4.4970
    Quadrupole Moments (Debye-Ang)
        XX    -413.2876     XY      13.8372     YY    -433.0586
        XZ      13.9658     YZ     -13.7691     ZZ    -435.8287

 Total job time:  90.74s(wall), 974.64s(cpu)
        *  Thank you very much for using Q-Chem.  Have a nice day.  *
