 Q-Chem 4.4, Q-Chem, Inc., Pleasanton, CA (2016)
 Q-Chem 4.4.2 for Intel X86 Linux

User input:
--------------------------------------------------------------
$comment
SP
$end

$rem
MEM_STATIC 5000
MEM_TOTAL 20000
JOBTYPE SP
EXCHANGE B3LYP
BASIS 6-31g(d,p)
$end

$molecule
0 1
C          11.480000     11.105000      1.123000
C          10.387000     11.481000      0.262000
N          11.427000     11.406000      2.452000
C           9.192000     11.945000      0.856000
C          10.320000     11.984000      2.967000
C           9.156000     12.212000      2.246000
C           7.897000     12.739000      2.892000
C           7.040000     13.656000      2.264000
C           7.354000     12.082000      4.027000
N           5.763000     13.923000      2.703000
N           7.967000     11.115000      4.655000
C           6.171000     12.431000      4.618000
C           5.350000     13.346000      3.858000
S           6.964000     10.663000      5.840000
N           5.671000     11.595000      5.557000
C           4.017000     13.807000      4.336000
S           2.528000     13.904000      3.403000
C           3.753000     14.101000      5.676000
C           1.599000     14.423000      4.824000
S           4.875000     14.205000      7.035000
C           2.450000     14.524000      5.890000
C           0.202000     14.823000      4.815000
C           3.453000     14.776000      7.993000
C           2.258000     14.899000      7.286000
N          -0.393000     14.546000      3.647000
S          -0.544000     16.001000      5.767000
C          -1.578000     15.253000      3.564000
C          -1.715000     16.200000      4.552000
C          12.771000     10.475000      0.673000
H          10.462000     11.299000     -0.806000
H           8.327000     12.156000      0.234000
H          10.322000     12.250000      4.023000
H           7.261000     14.071000      1.281000
H           3.653000     14.964000      9.040000
H           1.276000     15.156000      7.668000
H          -2.192000     15.185000      2.676000
H          -2.543000     16.885000      4.679000
H          12.787000     10.526000     -0.423000
C          12.809000      8.953000      1.143000
H          13.651000     10.992000      1.076000
H          12.005000      8.410000      0.631000
H          12.726000      8.837000      2.231000
C          14.139000      8.259000      0.632000
H          14.415000      8.756000     -0.306000
C          13.994000      6.771000      0.254000
H          14.920000      8.416000      1.386000
H          13.280000      6.730000     -0.577000
H          13.540000      6.270000      1.117000
C          15.276000      6.109000     -0.214000
H          15.775000      6.671000     -1.012000
C          15.017000      4.571000     -0.471000
H          15.996000      6.167000      0.612000
H          15.904000      3.927000     -0.523000
H          14.346000      4.493000     -1.335000
H          14.447000      4.132000      0.357000
C          14.253000      8.128000     -3.465000
C          13.014000      8.702000     -3.215000
N          15.417000      8.775000     -3.470000
C          12.973000     10.111000     -3.189000
C          15.331000     10.146000     -3.430000
C          14.169000     10.900000     -3.285000
C          14.284000     12.406000     -3.402000
C          15.261000     13.020000     -4.135000
C          13.329000     13.231000     -2.784000
N          15.413000     14.341000     -4.160000
N          12.180000     12.806000     -2.190000
C          13.480000     14.620000     -2.848000
C          14.599000     15.189000     -3.507000
S          11.494000     14.180000     -1.562000
N          12.545000     15.275000     -2.108000
C          14.707000     16.588000     -3.813000
S          13.452000     17.960000     -3.590000
C          15.824000     17.175000     -4.393000
C          14.493000     19.092000     -4.493000
S          17.481000     16.427000     -4.554000
C          15.735000     18.470000     -4.687000
C          14.214000     20.458000     -4.928000
C          17.990000     17.948000     -5.346000
C          16.984000     18.875000     -5.384000
N          15.204000     21.277000     -5.154000
S          12.630000     21.163000     -4.936000
C          14.798000     22.595000     -5.140000
C          13.430000     22.719000     -5.121000
C          14.308000      6.675000     -3.827000
H          12.083000      8.143000     -3.232000
H          11.980000     10.551000     -3.187000
H          16.270000     10.681000     -3.562000
H          15.968000     12.519000     -4.795000
H          18.967000     18.056000     -5.798000
H          17.061000     19.889000     -5.760000
H          15.578000     23.343000     -5.193000
H          12.883000     23.653000     -5.135000
H          15.289000      6.445000     -4.262000
C          13.234000      6.154000     -4.758000
H          14.139000      6.075000     -2.925000
H          13.111000      6.953000     -5.500000
H          12.216000      6.071000     -4.356000
C          13.467000      4.692000     -5.237000
H          14.266000      4.177000     -4.691000
C          13.933000      4.666000     -6.710000
H          12.547000      4.125000     -5.051000
H          14.029000      3.603000     -6.963000
H          14.951000      5.074000     -6.721000
C          13.051000      5.237000     -7.873000
H          12.212000      4.532000     -7.846000
C          13.825000      5.443000     -9.159000
H          12.681000      6.235000     -7.605000
H          13.211000      5.847000     -9.973000
H          14.310000      4.474000     -9.328000
H          14.592000      6.204000     -8.968000
$end

--------------------------------------------------------------

             Standard Nuclear Orientation (Angstroms)
    I     Atom           X                Y                Z
 ----------------------------------------------------------------
    1      C       0.1231195689     2.1839377347    -1.6437156103
    2      C      -0.2234519110     1.7024268329    -0.3301778451
    3      N      -0.7664711484     2.0496474511    -2.6685304597
    4      C      -1.5598704135     1.3134996392    -0.0875294901
    5      C      -1.9938604080     1.5379676025    -2.4309229308
    6      C      -2.4714930358     1.2205262130    -1.1668742620
    7      C      -3.8949265729     0.7754115327    -0.9305780781
    8      C      -4.2432806624    -0.2137044196     0.0021711171
    9      C      -4.9733504348     1.5669187973    -1.4051739318
   10      N      -5.5324111724    -0.4264682357     0.4353143806
   11      N      -4.8115321292     2.6052394353    -2.1803817031
   12      C      -6.2897895703     1.2917561697    -1.1564883255
   13      C      -6.5279340023     0.2883484106    -0.1439044531
   14      S      -6.2954561395     3.1987369149    -2.4258776776
   15      N      -7.1993226975     2.2367013072    -1.4888212573
   16      C      -7.8997389421    -0.1121909930     0.2751580641
   17      S      -8.4892727180    -0.3264252345     1.9194124899
   18      C      -8.9602272778    -0.2385289426    -0.6254723885
   19      C     -10.1359541591    -0.6671275961     1.3501980028
   20      S      -8.9368425303    -0.1716428544    -2.3894339541
   21      C     -10.1417882593    -0.6339841318    -0.0171444832
   22      C     -11.2506061995    -1.0675176150     2.1921770177
   23      C     -10.6845377890    -0.6220787974    -2.2969258787
   24      C     -11.1870535896    -0.8336471071    -1.0140697993
   25      N     -10.9683256940    -0.9382075604     3.4954707782
   26      S     -12.5134456271    -2.1198901965     1.8071412665
   27      C     -11.8950157264    -1.6520384744     4.2321213127
   28      C     -12.6875492464    -2.4697065120     3.4607383986
   29      C       1.4576385737     2.7555722585    -2.0416779166
   30      H       0.5121559506     1.7509720413     0.4672539304
   31      H      -1.8644419079     1.0256837208     0.9144825867
   32      H      -2.6683441266     1.4047128060    -3.2754410613
   33      H      -3.4920167422    -0.7468024435     0.5842054968
   34      H     -11.1930358662    -0.6787139287    -3.2507472285
   35      H     -12.2098977923    -1.0430457675    -0.7204051302
   36      H     -11.8173530507    -1.6954988887     5.3101953830
   37      H     -13.4644849148    -3.1351147861     3.8136417788
   38      H       2.1468706290     2.5693444504    -1.2084004254
   39      C       1.3112780333     4.3241019291    -2.2806784701
   40      H       1.8544895734     2.2939070662    -2.9546250861
   41      H       1.0433841753     4.7982047089    -1.3283820692
   42      H       0.5796965550     4.5737269616    -3.0595012251
   43      C       2.7189750523     4.9517602685    -2.6495837582
   44      H       3.4789554590     4.3429548664    -2.1447919558
   45      C       2.9538906252     6.3812901816    -2.1210840883
   46      H       2.8480280502     4.8906016907    -3.7371181035
   47      H       2.9160906459     6.3179236580    -1.0271947679
   48      H       2.1019345928     6.9844827202    -2.4560701780
   49      C       4.2950033229     6.9824356964    -2.4963610553
   50      H       5.1370533863     6.3268327633    -2.2457907361
   51      C       4.3696521326     8.4763647931    -1.9853058631
   52      H       4.3392946825     7.0283242237    -3.5917936267
   53      H       5.1429156058     9.1104701001    -2.4371720608
   54      H       4.3887065192     8.4457018805    -0.8891682275
   55      H       3.4442208001     9.0135070095    -2.2266771292
   56      C       5.3621806548     4.5748777787     0.4628091688
   57      C       4.1966929977     4.0341470803     0.9884952281
   58      N       6.2240549775     3.9341941386    -0.3247358300
   59      C       4.0412923707     2.6391310600     0.8565143655
   60      C       6.0277490264     2.5785428517    -0.4356888012
   61      C       4.9738312798     1.8463306115     0.1055206026
   62      C       5.0215454002     0.3376247089    -0.0228533132
   63      C       6.1921544370    -0.3607287946    -0.1267324117
   64      C       3.8299607804    -0.4061519667     0.0158293790
   65      N       6.2256829799    -1.6744086163    -0.3314057192
   66      N       2.5971081415     0.0871619427     0.3164583158
   67      C       3.8817518500    -1.7921374095    -0.1646700319
   68      C       5.1206047074    -2.4364392339    -0.4102749112
   69      S       1.5673614103    -1.1997023979     0.1255189577
   70      N       2.6429476326    -2.3520883144    -0.2163333171
   71      C       5.2883763338    -3.8623714146    -0.3775472869
   72      S       4.0664210363    -5.1983341563     0.1011664100
   73      C       6.4752383762    -4.5147607171    -0.6848007496
   74      C       5.3530920909    -6.4316366480     0.0382652087
   75      S       7.9247810252    -3.7896491629    -1.5239153680
   76      C       6.4897974895    -5.8363391499    -0.5279553540
   77      C       5.3015915961    -7.8414399236     0.4161863951
   78      C       8.6978950081    -5.3961180254    -1.3778381165
   79      C       7.8661465845    -6.3223863312    -0.8094803194
   80      N       6.1518796798    -8.6804460208    -0.1082332304
   81      S       4.0172210121    -8.5446755971     1.3446242176
   82      C       5.7261257759    -9.9872615532     0.0063214614
   83      C       4.6377204778   -10.1102597330     0.8354211869
   84      C       5.7405137040     5.9719938225     0.8503770518
   85      H       3.5235427684     4.5851768916     1.6386997466
   86      H       3.2319209522     2.2010902649     1.4333082359
   87      H       6.8014985227     2.0329008995    -0.9732356149
   88      H       7.1916920789     0.0559237162    -0.0093646663
   89      H       9.7325215589    -5.5575845411    -1.6498187493
   90      H       8.0825174189    -7.3749949099    -0.6656059221
   91      H       6.3105642396   -10.7347557853    -0.5136757070
   92      H       4.1485968866   -11.0397310294     1.0973414454
   93      H       6.7934360804     6.1480388584     0.5957231404
   94      C       5.5205257747     6.3719534635     2.2937465806
   95      H       5.0942013197     6.6787317596     0.3165542440
   96      H       5.8245384879     5.4870566595     2.8670073560
   97      H       4.4830629426     6.5023549240     2.6276377768
   98      C       6.1110592067     7.7638194354     2.6613787093
   99      H       6.4344860721     8.3437803185     1.7891502778
  100      C       7.3913177264     7.6080975843     3.5124073973
  101      H       5.3210328351     8.3479306341     3.1483668403
  102      H       7.7042522072     8.6317721650     3.7518992832
  103      H       8.1612203673     7.2035876414     2.8441779234
  104      C       7.3820465898     6.8960643090     4.9086368415
  105      H       6.7644554307     7.5975719692     5.4814746571
  106      C       8.7687807273     6.5337892339     5.3995881649
  107      H       6.8510003187     5.9382850363     4.8353107020
  108      H       8.7645537731     6.0311171090     6.3743244717
  109      H       9.3258491525     7.4752379173     5.3215103436
  110      H       9.1905604179     5.8035718529     4.6976084865
 ----------------------------------------------------------------

    9   -5663.4891004534      8.23E-06 Convergence criterion met
 Total energy in the final basis set = -5663.4891004534

                    Orbital Energies (a.u.)
 --------------------------------------------------------------

 Alpha MOs
 -- Occupied --
-88.991 -88.987 -88.934 -88.932 -88.931 -88.921 -88.911 -88.905
-14.392 -14.389 -14.382 -14.379 -14.350 -14.344 -14.344 -14.340
-14.333 -14.326 -10.275 -10.263 -10.263 -10.262 -10.255 -10.254
-10.254 -10.253 -10.251 -10.248 -10.240 -10.238 -10.237 -10.236
-10.236 -10.234 -10.234 -10.233 -10.229 -10.228 -10.228 -10.228
-10.226 -10.226 -10.225 -10.224 -10.222 -10.222 -10.219 -10.216
-10.215 -10.213 -10.211 -10.208 -10.204 -10.203 -10.200 -10.194
-10.184 -10.183 -10.180 -10.180 -10.179 -10.177 -10.177 -10.174
-10.174 -10.172 -10.171 -10.170  -8.046  -8.044  -7.994  -7.993
 -7.991  -7.979  -7.971  -7.964  -6.011  -6.009  -6.005  -6.004
 -6.003  -6.002  -5.958  -5.957  -5.956  -5.954  -5.954  -5.952
 -5.951  -5.950  -5.948  -5.943  -5.939  -5.936  -5.936  -5.932
 -5.929  -5.927  -5.925  -5.920  -1.057  -1.036  -0.978  -0.971
 -0.964  -0.948  -0.941  -0.930  -0.920  -0.909  -0.906  -0.900
 -0.837  -0.833  -0.833  -0.829  -0.816  -0.812  -0.809  -0.809
 -0.808  -0.797  -0.795  -0.792  -0.787  -0.778  -0.773  -0.764
 -0.754  -0.746  -0.737  -0.736  -0.730  -0.720  -0.713  -0.705
 -0.695  -0.690  -0.676  -0.671  -0.655  -0.654  -0.650  -0.642
 -0.640  -0.635  -0.627  -0.624  -0.613  -0.602  -0.602  -0.597
 -0.597  -0.591  -0.585  -0.581  -0.576  -0.575  -0.564  -0.555
 -0.554  -0.546  -0.543  -0.542  -0.525  -0.523  -0.518  -0.512
 -0.510  -0.507  -0.500  -0.495  -0.489  -0.487  -0.481  -0.478
 -0.474  -0.473  -0.472  -0.470  -0.466  -0.465  -0.455  -0.449
 -0.443  -0.441  -0.439  -0.436  -0.435  -0.435  -0.434  -0.428
 -0.428  -0.425  -0.423  -0.422  -0.418  -0.417  -0.416  -0.413
 -0.409  -0.407  -0.406  -0.401  -0.397  -0.397  -0.395  -0.394
 -0.394  -0.393  -0.392  -0.389  -0.389  -0.388  -0.385  -0.384
 -0.380  -0.378  -0.374  -0.371  -0.365  -0.365  -0.360  -0.357
 -0.354  -0.351  -0.346  -0.345  -0.344  -0.344  -0.342  -0.341
 -0.340  -0.339  -0.331  -0.331  -0.330  -0.328  -0.319  -0.316
 -0.312  -0.310  -0.309  -0.308  -0.302  -0.302  -0.299  -0.298
 -0.297  -0.295  -0.294  -0.292  -0.284  -0.283  -0.281  -0.281
 -0.276  -0.273  -0.268  -0.264  -0.260  -0.255  -0.254  -0.248
 -0.246  -0.242  -0.234  -0.233  -0.195  -0.195

          Ground-State Mulliken Net Atomic Charges

     Atom                 Charge (a.u.)
  ----------------------------------------
      1 C                     0.267230
      2 C                    -0.146046
      3 N                    -0.483709
      4 C                    -0.083356
      5 C                     0.097794
      6 C                     0.046142
      7 C                     0.026307
      8 C                     0.037074
      9 C                     0.239833
     10 N                    -0.473012
     11 N                    -0.531431
     12 C                     0.155234
     13 C                     0.221736
     14 S                     0.603416
     15 N                    -0.476776
     16 C                    -0.215224
     17 S                     0.343922
     18 C                    -0.105812
     19 C                    -0.225197
     20 S                     0.251583
     21 C                     0.138562
     22 C                     0.046937
     23 C                    -0.303909
     24 C                    -0.063017
     25 N                    -0.425684
     26 S                     0.297449
     27 C                     0.112143
     28 C                    -0.313012
     29 C                    -0.229785
     30 H                     0.107609
     31 H                     0.099381
     32 H                     0.106990
     33 H                     0.110236
     34 H                     0.129627
     35 H                     0.110634
     36 H                     0.116479
     37 H                     0.134511
     38 H                     0.115023
     39 C                    -0.184782
     40 H                     0.120942
     41 H                     0.090472
     42 H                     0.117885
     43 C                    -0.190302
     44 H                     0.101611
     45 C                    -0.172569
     46 H                     0.091711
     47 H                     0.082082
     48 H                     0.090436
     49 C                    -0.182065
     50 H                     0.113369
     51 C                    -0.326051
     52 H                     0.090169
     53 H                     0.100908
     54 H                     0.099516
     55 H                     0.102084
     56 C                     0.281963
     57 C                    -0.099850
     58 N                    -0.496136
     59 C                    -0.096058
     60 C                     0.047062
     61 C                     0.067326
     62 C                     0.038014
     63 C                     0.052903
     64 C                     0.257124
     65 N                    -0.512646
     66 N                    -0.596064
     67 C                     0.161202
     68 C                     0.294952
     69 S                     0.616846
     70 N                    -0.544308
     71 C                    -0.203815
     72 S                     0.312523
     73 C                    -0.111879
     74 C                    -0.226470
     75 S                     0.268735
     76 C                     0.159322
     77 C                     0.068574
     78 C                    -0.302398
     79 C                    -0.050559
     80 N                    -0.424407
     81 S                     0.270083
     82 C                     0.129719
     83 C                    -0.317089
     84 C                    -0.235984
     85 H                     0.100300
     86 H                     0.116415
     87 H                     0.099345
     88 H                     0.124255
     89 H                     0.130977
     90 H                     0.121644
     91 H                     0.123514
     92 H                     0.134693
     93 H                     0.117961
     94 C                    -0.183320
     95 H                     0.127955
     96 H                     0.099530
     97 H                     0.086831
     98 C                    -0.200507
     99 H                     0.104718
    100 C                    -0.178088
    101 H                     0.090627
    102 H                     0.084567
    103 H                     0.090374
    104 C                    -0.170527
    105 H                     0.091245
    106 C                    -0.310355
    107 H                     0.089239
    108 H                     0.103630
    109 H                     0.103507
    110 H                     0.107491
  ----------------------------------------
  Sum of atomic charges =     0.000000

                    Cartesian Multipole Moments
 -----------------------------------------------------------------
    Charge (ESU x 10^10)
                 0.0000
    Dipole Moment (Debye)
         X      -2.5702      Y      -3.0952      Z       1.8719
       Tot       4.4374
    Quadrupole Moments (Debye-Ang)
        XX    -406.7783     XY       1.7628     YY    -398.9706
        XZ      10.3379     YZ      -2.1758     ZZ    -443.6907

 Total job time:  90.77s(wall), 1003.01s(cpu)
        *  Thank you very much for using Q-Chem.  Have a nice day.  *
