 Q-Chem 4.4, Q-Chem, Inc., Pleasanton, CA (2016)
 Q-Chem 4.4.2 for Intel X86 Linux

User input:
--------------------------------------------------------------
$comment
SP
$end

$rem
MEM_STATIC 5000
MEM_TOTAL 20000
JOBTYPE SP
EXCHANGE B3LYP
BASIS 6-31g(d,p)
$end

$molecule
0 1
C           1.117000     19.255000     10.528000
C           2.376000     19.909000     10.614000
N           0.863000     18.314000      9.594000
C           3.320000     19.635000      9.628000
C           1.751000     18.055000      8.620000
C           3.014000     18.690000      8.585000
C           3.993000     18.294000      7.406000
C           5.389000     18.233000      7.631000
C           3.587000     18.029000      6.117000
N           6.322000     17.765000      6.749000
N           2.381000     18.142000      5.614000
C           4.516000     17.750000      5.121000
C           5.889000     17.563000      5.455000
S           2.459000     17.727000      4.020000
N           4.042000     17.542000      3.867000
C           6.973000     17.118000      4.565000
S           8.517000     16.296000      5.131000
C           7.284000     17.660000      3.271000
C           9.201000     16.336000      3.513000
S           6.482000     19.007000      2.502000
C           8.459000     17.164000      2.696000
C          10.481000     15.859000      3.238000
C           7.677000     18.802000      1.184000
C           8.674000     17.878000      1.447000
N          10.866000     15.700000      1.967000
S          11.499000     15.078000      4.419000
C          12.206000     15.326000      1.932000
C          12.725000     14.932000      3.159000
C          -0.060000     19.538000     11.499000
H           2.501000     20.613000     11.432000
H           4.293000     20.118000      9.598000
H           1.443000     17.386000      7.817000
H           5.735000     18.389000      8.652000
H           7.626000     19.502000      0.361000
H           9.516000     17.681000      0.793000
H          12.669000     15.291000      0.955000
H          13.657000     14.405000      3.314000
H          -0.191000     20.624000     11.412000
C           0.118000     19.110000     12.963000
H          -0.978000     19.126000     11.061000
H          -0.749000     19.449000     13.543000
H           0.992000     19.667000     13.323000
C           0.276000     17.569000     13.188000
H          -0.648000     17.066000     12.878000
C           0.491000     17.153000     14.653000
H           1.118000     17.283000     12.546000
H          -0.487000     17.267000     15.136000
H           1.096000     17.930000     15.136000
C           1.062000     15.709000     14.729000
H           0.346000     15.095000     14.169000
C           1.305000     15.356000     16.172000
H           1.963000     15.625000     14.108000
H           1.749000     16.190000     16.730000
H           1.820000     14.407000     16.364000
H           0.339000     15.197000     16.668000
C          14.253000      8.128000     -3.465000
C          13.014000      8.702000     -3.215000
N          15.417000      8.775000     -3.470000
C          12.973000     10.111000     -3.189000
C          15.331000     10.146000     -3.430000
C          14.169000     10.900000     -3.285000
C          14.284000     12.406000     -3.402000
C          15.261000     13.020000     -4.135000
C          13.329000     13.231000     -2.784000
N          15.413000     14.341000     -4.160000
N          12.180000     12.806000     -2.190000
C          13.480000     14.620000     -2.848000
C          14.599000     15.189000     -3.507000
S          11.494000     14.180000     -1.562000
N          12.545000     15.275000     -2.108000
C          14.707000     16.588000     -3.813000
S          13.452000     17.960000     -3.590000
C          15.824000     17.175000     -4.393000
C          14.493000     19.092000     -4.493000
S          17.481000     16.427000     -4.554000
C          15.735000     18.470000     -4.687000
C          14.214000     20.458000     -4.928000
C          17.990000     17.948000     -5.346000
C          16.984000     18.875000     -5.384000
N          15.204000     21.277000     -5.154000
S          12.630000     21.163000     -4.936000
C          14.798000     22.595000     -5.140000
C          13.430000     22.719000     -5.121000
C          14.308000      6.675000     -3.827000
H          12.083000      8.143000     -3.232000
H          11.980000     10.551000     -3.187000
H          16.270000     10.681000     -3.562000
H          15.968000     12.519000     -4.795000
H          18.967000     18.056000     -5.798000
H          17.061000     19.889000     -5.760000
H          15.578000     23.343000     -5.193000
H          12.883000     23.653000     -5.135000
H          15.289000      6.445000     -4.262000
C          13.234000      6.154000     -4.758000
H          14.139000      6.075000     -2.925000
H          13.111000      6.953000     -5.500000
H          12.216000      6.071000     -4.356000
C          13.467000      4.692000     -5.237000
H          14.266000      4.177000     -4.691000
C          13.933000      4.666000     -6.710000
H          12.547000      4.125000     -5.051000
H          14.029000      3.603000     -6.963000
H          14.951000      5.074000     -6.721000
C          13.051000      5.237000     -7.873000
H          12.212000      4.532000     -7.846000
C          13.825000      5.443000     -9.159000
H          12.681000      6.235000     -7.605000
H          13.211000      5.847000     -9.973000
H          14.310000      4.474000     -9.328000
H          14.592000      6.204000     -8.968000
$end

--------------------------------------------------------------

             Standard Nuclear Orientation (Angstroms)
    I     Atom           X                Y                Z
 ----------------------------------------------------------------
    1      C     -13.1871316519    -0.0645077261     0.7015516993
    2      C     -12.6488865098    -0.9184641888    -0.2990698708
    3      N     -12.4013550549     0.7182453763     1.4711007362
    4      C     -11.2633205728    -1.0161414500    -0.3943283978
    5      C     -11.0631182055     0.6189696292     1.4113725106
    6      C     -10.4275182017    -0.2398160504     0.4850254959
    7      C      -8.8448639862    -0.2622263279     0.4838365795
    8      C      -8.1369229046    -0.4271163155    -0.7305738606
    9      C      -8.0672751830    -0.1680516619     1.6165628418
   10      N      -6.7841922588    -0.3164094862    -0.8896361059
   11      N      -8.4655239079    -0.1408496079     2.8659114727
   12      C      -6.6821916033    -0.2599072771     1.5390772092
   13      C      -6.0361251083    -0.2787712981     0.2686850521
   14      S      -7.1239874951    -0.0504749305     3.8205095404
   15      N      -5.9874818803    -0.2012901060     2.7028634559
   16      C      -4.5906078032    -0.2204211603    -0.0001196768
   17      S      -3.8441139824     0.3833922874    -1.5679628756
   18      C      -3.5810467429    -1.0415423746     0.6093615919
   19      C      -2.2319184593    -0.0845562390    -1.0490893150
   20      S      -3.8587039476    -2.3301407300     1.7545230456
   21      C      -2.3000662459    -0.8930317901     0.0668677462
   22      C      -1.1141872744     0.0811859762    -1.8644177865
   23      C      -2.0902848149    -2.6034826224     1.6827457433
   24      C      -1.4283833770    -1.8534187395     0.7255390477
   25      N       0.1087775299    -0.0738561004    -1.3455092762
   26      S      -1.1589977055     0.8592361773    -3.4244421164
   27      C       1.0579761357     0.0255782642    -2.3583448077
   28      C       0.5698461145     0.5338472573    -3.5556408083
   29      C     -14.7072983810     0.0660025472     0.9849580939
   30      H     -13.3653410657    -1.4696514774    -0.9017724859
   31      H     -10.7697716052    -1.6723270331    -1.1061906717
   32      H     -10.4796430867     1.1739686930     2.1453798845
   33      H      -8.7235972550    -0.4543788326    -1.6479412689
   34      H      -1.6950208887    -3.4209911065     2.2704329960
   35      H      -0.3725100255    -1.9445215661     0.4968017737
   36      H       2.0778313106    -0.2094491522    -2.0848845076
   37      H       1.1672296754     0.8935040852    -4.3827791567
   38      H     -15.0098151815    -0.9722928558     1.1708404263
   39      C     -15.5723271432     0.7157185340    -0.1048851871
   40      H     -14.8381008236     0.5566848920     1.9578062616
   41      H     -16.6260810530     0.6609678111     0.1944725518
   42      H     -15.4489165211     0.0791613033    -0.9899217459
   43      C     -15.2356558768     2.2131167370    -0.4126530869
   44      H     -15.4412205910     2.8163631796     0.4799396969
   45      C     -16.0818269335     2.8444150739    -1.5311176382
   46      H     -14.1652141170     2.2100460584    -0.6515442962
   47      H     -17.0724627432     3.0097543152    -1.0905808886
   48      H     -16.2733480829     2.0696256129    -2.2834898469
   49      C     -15.4059441349     4.1422205479    -2.0563189276
   50      H     -15.2685329342     4.7666995586    -1.1650299021
   51      C     -16.2351666705     4.7033831582    -3.1803267173
   52      H     -14.3680945288     3.9370574845    -2.3483365855
   53      H     -16.5965037786     3.9181136949    -3.8562286068
   54      H     -15.8105111402     5.5560276837    -3.7237924419
   55      H     -17.1560456736     5.1320674538    -2.7647973726
   56      C       8.2256502007     5.5780658354    -0.6485634565
   57      C       7.1261243549     5.3063798743     0.1541361466
   58      N       8.7748834435     4.7320776539    -1.5181477489
   59      C       6.7098260221     3.9604569715     0.2072891142
   60      C       8.3305226310     3.4339369839    -1.4406153747
   61      C       7.3088795104     2.9546358543    -0.6243428948
   62      C       7.0691998553     1.4590780607    -0.5958727577
   63      C       8.0528449973     0.5457506365    -0.8548886853
   64      C       5.8048427271     0.9594940501    -0.2403578228
   65      N       7.8164043444    -0.7614442963    -0.9189763222
   66      N       4.7687479525     1.6975648971     0.2448442410
   67      C       5.5788150813    -0.4202909700    -0.2767281634
   68      C       6.6067397026    -1.3035281313    -0.6932207680
   69      S       3.5176316653     0.6193690829     0.4031408684
   70      N       4.2809944942    -0.7371927939    -0.0196582161
   71      C       6.5313761649    -2.7295586094    -0.5407136770
   72      S       5.2315131661    -3.7726130472     0.3134125572
   73      C       7.4946386074    -3.6151536657    -1.0060145079
   74      C       6.2441453563    -5.2290036046     0.1289766831
   75      S       8.8311646406    -3.2386820820    -2.1905149550
   76      C       7.3165840843    -4.9012457823    -0.7133617196
   77      C       6.0351848381    -6.5735281421     0.6596472683
   78      C       9.3313612138    -4.9484831507    -2.0287444584
   79      C       8.4959971495    -5.6580977765    -1.2093404292
   80      N       6.5961339657    -7.5931739908     0.0700750340
   81      S       4.8804577735    -6.9536847385     1.8958638223
   82      C       5.9881692849    -8.7842019478     0.4076951645
   83      C       5.0995880744    -8.6402303908     1.4454121891
   84      C       8.9117577761     6.9015823801    -0.4974398278
   85      H       6.7133830999     6.0191637882     0.8620307351
   86      H       5.9812408632     3.7253271081     0.9776984947
   87      H       8.8651980368     2.7152036987    -2.0594163728
   88      H       9.1103165051     0.7723069620    -0.9847972743
   89      H      10.2397809274    -5.3219439312    -2.4823937386
   90      H       8.5551360836    -6.7199796129    -0.9986023169
   91      H       6.3101283246    -9.6634669904    -0.1344748840
   92      H       4.5269791573    -9.4393951673     1.8984195710
   93      H       9.8991904261     6.8563988669    -0.9743268289
   94      C       9.0799327981     7.4357923043     0.9089793553
   95      H       8.2960577215     7.6791053862    -0.9649186164
   96      H       9.3446054390     6.5515023970     1.5023373863
   97      H       8.1768297727     7.7836900894     1.4268490847
   98      C       9.9648503484     8.7125059987     0.9989630864
   99      H      10.1867904115     9.1582175644     0.0223230255
  100      C      11.3526128449     8.3764571719     1.5895115088
  101      H       9.4101969786     9.4684731460     1.5676091200
  102      H      11.8800821108     9.3363195681     1.6497971104
  103      H      11.8795258703     7.7875473458     0.8289479806
  104      C      11.5231428577     7.7783654373     3.0281705344
  105      H      11.1728480825     8.6225741813     3.6333813794
  106      C      12.9003041030     7.1946863231     3.2691136733
  107      H      10.8330849593     6.9360288481     3.1660732806
  108      H      13.0205583693     6.7712484136     4.2736271118
  109      H      13.5799331017     8.0055215648     2.9803271865
  110      H      13.0295873338     6.3505045564     2.5802493972
 ----------------------------------------------------------------

    9   -5663.4895643211      6.63E-06 Convergence criterion met
 Total energy in the final basis set = -5663.4895643211

                    Orbital Energies (a.u.)
 --------------------------------------------------------------

 Alpha MOs
 -- Occupied --
-88.991 -88.989 -88.933 -88.932 -88.926 -88.925 -88.914 -88.905
-14.390 -14.387 -14.381 -14.378 -14.355 -14.344 -14.343 -14.342
-14.328 -14.326 -10.275 -10.266 -10.265 -10.262 -10.258 -10.253
-10.253 -10.253 -10.252 -10.249 -10.247 -10.242 -10.239 -10.237
-10.237 -10.236 -10.236 -10.233 -10.232 -10.231 -10.231 -10.230
-10.228 -10.225 -10.224 -10.224 -10.223 -10.222 -10.222 -10.220
-10.214 -10.214 -10.211 -10.207 -10.206 -10.205 -10.195 -10.194
-10.186 -10.185 -10.183 -10.179 -10.178 -10.177 -10.176 -10.175
-10.175 -10.174 -10.173 -10.170  -8.047  -8.044  -7.993  -7.991
 -7.987  -7.983  -7.974  -7.964  -6.012  -6.010  -6.007  -6.005
 -6.004  -6.002  -5.957  -5.955  -5.954  -5.952  -5.951  -5.950
 -5.948  -5.948  -5.947  -5.944  -5.944  -5.940  -5.939  -5.935
 -5.930  -5.929  -5.925  -5.919  -1.050  -1.035  -0.978  -0.964
 -0.963  -0.950  -0.936  -0.934  -0.916  -0.908  -0.906  -0.899
 -0.843  -0.833  -0.830  -0.827  -0.810  -0.809  -0.809  -0.807
 -0.803  -0.801  -0.795  -0.793  -0.784  -0.784  -0.771  -0.767
 -0.752  -0.749  -0.742  -0.735  -0.729  -0.722  -0.711  -0.710
 -0.697  -0.693  -0.675  -0.675  -0.653  -0.652  -0.647  -0.647
 -0.639  -0.636  -0.627  -0.623  -0.611  -0.609  -0.601  -0.596
 -0.595  -0.588  -0.585  -0.583  -0.581  -0.575  -0.568  -0.554
 -0.554  -0.553  -0.541  -0.540  -0.523  -0.523  -0.512  -0.510
 -0.507  -0.505  -0.501  -0.494  -0.487  -0.484  -0.479  -0.478
 -0.474  -0.471  -0.470  -0.469  -0.467  -0.460  -0.453  -0.447
 -0.444  -0.440  -0.439  -0.438  -0.437  -0.435  -0.434  -0.434
 -0.430  -0.427  -0.423  -0.421  -0.420  -0.417  -0.416  -0.415
 -0.412  -0.407  -0.405  -0.403  -0.399  -0.398  -0.397  -0.395
 -0.393  -0.393  -0.391  -0.390  -0.389  -0.388  -0.386  -0.384
 -0.383  -0.378  -0.373  -0.372  -0.369  -0.368  -0.365  -0.354
 -0.353  -0.350  -0.346  -0.345  -0.345  -0.344  -0.343  -0.342
 -0.341  -0.340  -0.333  -0.331  -0.330  -0.329  -0.319  -0.314
 -0.314  -0.312  -0.310  -0.307  -0.303  -0.302  -0.302  -0.298
 -0.297  -0.296  -0.293  -0.292  -0.286  -0.282  -0.281  -0.279
 -0.274  -0.270  -0.269  -0.266  -0.256  -0.254  -0.254  -0.246
 -0.244  -0.244  -0.234  -0.232  -0.194  -0.194

          Ground-State Mulliken Net Atomic Charges

     Atom                 Charge (a.u.)
  ----------------------------------------
      1 C                     0.263271
      2 C                    -0.113113
      3 N                    -0.482127
      4 C                    -0.083510
      5 C                     0.090738
      6 C                     0.033463
      7 C                     0.031602
      8 C                     0.050825
      9 C                     0.283220
     10 N                    -0.499320
     11 N                    -0.571695
     12 C                     0.173997
     13 C                     0.239828
     14 S                     0.607653
     15 N                    -0.519860
     16 C                    -0.195997
     17 S                     0.311649
     18 C                    -0.146997
     19 C                    -0.215893
     20 S                     0.268675
     21 C                     0.174582
     22 C                     0.054500
     23 C                    -0.295659
     24 C                    -0.060242
     25 N                    -0.441904
     26 S                     0.272285
     27 C                     0.116361
     28 C                    -0.309151
     29 C                    -0.226151
     30 H                     0.095493
     31 H                     0.101250
     32 H                     0.120542
     33 H                     0.110664
     34 H                     0.128919
     35 H                     0.126310
     36 H                     0.117661
     37 H                     0.135919
     38 H                     0.099748
     39 C                    -0.185940
     40 H                     0.118331
     41 H                     0.093793
     42 H                     0.087112
     43 C                    -0.172541
     44 H                     0.097403
     45 C                    -0.177640
     46 H                     0.099990
     47 H                     0.091464
     48 H                     0.086532
     49 C                    -0.168842
     50 H                     0.097543
     51 C                    -0.318352
     52 H                     0.097050
     53 H                     0.105737
     54 H                     0.097273
     55 H                     0.102177
     56 C                     0.275699
     57 C                    -0.101114
     58 N                    -0.494384
     59 C                    -0.082289
     60 C                     0.046986
     61 C                     0.062904
     62 C                     0.033730
     63 C                     0.052474
     64 C                     0.243375
     65 N                    -0.511692
     66 N                    -0.571588
     67 C                     0.162785
     68 C                     0.292512
     69 S                     0.624736
     70 N                    -0.555899
     71 C                    -0.202695
     72 S                     0.309585
     73 C                    -0.112003
     74 C                    -0.227481
     75 S                     0.266920
     76 C                     0.159138
     77 C                     0.068877
     78 C                    -0.302315
     79 C                    -0.050624
     80 N                    -0.424497
     81 S                     0.267147
     82 C                     0.129723
     83 C                    -0.317373
     84 C                    -0.223864
     85 H                     0.098244
     86 H                     0.116629
     87 H                     0.095930
     88 H                     0.124191
     89 H                     0.130646
     90 H                     0.121352
     91 H                     0.123164
     92 H                     0.133965
     93 H                     0.117445
     94 C                    -0.182624
     95 H                     0.111992
     96 H                     0.100731
     97 H                     0.087465
     98 C                    -0.198809
     99 H                     0.102019
    100 C                    -0.177598
    101 H                     0.089955
    102 H                     0.083659
    103 H                     0.090299
    104 C                    -0.170547
    105 H                     0.090871
    106 C                    -0.310338
    107 H                     0.089806
    108 H                     0.103439
    109 H                     0.103073
    110 H                     0.107645
  ----------------------------------------
  Sum of atomic charges =     0.000000

                    Cartesian Multipole Moments
 -----------------------------------------------------------------
    Charge (ESU x 10^10)
                 0.0000
    Dipole Moment (Debye)
         X      -1.4764      Y      -3.0528      Z       1.4461
       Tot       3.6865
    Quadrupole Moments (Debye-Ang)
        XX    -449.5234     XY       2.6010     YY    -403.3813
        XZ      17.3214     YZ      -1.7272     ZZ    -440.7707

 Total job time:  83.79s(wall), 897.61s(cpu)
        *  Thank you very much for using Q-Chem.  Have a nice day.  *
