 Q-Chem 4.4, Q-Chem, Inc., Pleasanton, CA (2016)
 Q-Chem 4.4.2 for Intel X86 Linux

User input:
--------------------------------------------------------------
$comment
SP
$end

$rem
MEM_STATIC 5000
MEM_TOTAL 20000
JOBTYPE SP
EXCHANGE B3LYP
BASIS 6-31g(d,p)
$end

$molecule
0 1
C          10.817000    -11.929000     11.150000
C          10.204000    -11.781000     12.411000
N          10.694000    -13.055000     10.453000
C           9.428000    -12.787000     12.929000
C           9.920000    -14.073000     10.915000
C           9.217000    -13.919000     12.137000
C           8.286000    -15.026000     12.687000
C           7.151000    -14.671000     13.434000
C           8.547000    -16.440000     12.515000
N           6.245000    -15.608000     13.891000
N           9.659000    -16.962000     11.867000
C           7.641000    -17.371000     13.011000
C           6.482000    -16.941000     13.683000
S           9.376000    -18.571000     11.874000
N           7.924000    -18.653000     12.696000
C           5.380000    -17.788000     14.021000
S           5.101000    -19.399000     13.477000
C           4.277000    -17.438000     14.783000
C           3.671000    -19.632000     14.473000
S           3.827000    -15.908000     15.537000
C           3.258000    -18.410000     14.964000
C           3.189000    -20.869000     15.108000
C           2.380000    -16.651000     16.184000
C           2.270000    -17.946000     15.820000
N           3.359000    -21.955000     14.417000
S           2.748000    -21.031000     16.789000
C           2.985000    -23.012000     15.198000
C           2.551000    -22.714000     16.437000
C          11.605000    -10.708000     10.589000
H          10.382000    -10.845000     12.933000
H           8.963000    -12.704000     13.907000
H          10.117000    -15.068000     10.519000
H           6.945000    -13.620000     13.631000
H           1.770000    -16.108000     16.893000
H           1.554000    -18.722000     16.069000
H           2.925000    -23.968000     14.694000
H           2.214000    -23.426000     17.178000
H          12.366000    -10.372000     11.303000
C          10.759000     -9.575000     10.041000
H          12.222000    -11.106000      9.774000
H          10.277000     -9.085000     10.896000
H          10.007000    -10.088000      9.429000
C          11.445000     -8.512000      9.168000
H          12.161000     -7.897000      9.727000
C          10.314000     -7.800000      8.252000
H          11.997000     -9.049000      8.386000
H           9.614000     -7.358000      8.971000
H           9.736000     -8.530000      7.672000
C          10.869000     -6.682000      7.410000
H          11.251000     -5.851000      8.015000
C           9.765000     -6.116000      6.558000
H          11.763000     -7.053000      6.892000
H          10.116000     -5.544000      5.690000
H           9.263000     -5.401000      7.220000
H           8.994000     -6.764000      6.122000
C          14.598000    -16.363000      8.271000
C          13.370000    -16.309000      8.912000
N          15.733000    -15.823000      8.762000
C          13.235000    -15.539000     10.055000
C          15.527000    -14.986000      9.860000
C          14.345000    -14.806000     10.557000
C          14.112000    -13.812000     11.654000
C          13.136000    -13.983000     12.686000
C          14.692000    -12.528000     11.566000
N          12.933000    -13.010000     13.647000
N          15.506000    -12.154000     10.550000
C          14.406000    -11.544000     12.549000
C          13.489000    -11.807000     13.611000
S          15.631000    -10.543000     10.693000
N          14.766000    -10.344000     12.091000
C          12.868000    -10.836000     14.563000
S          11.320000    -11.168000     15.392000
C          13.362000     -9.569000     14.903000
C          11.348000     -9.519000     16.084000
S          14.944000     -8.963000     14.786000
C          12.565000     -8.982000     15.835000
C          10.364000     -8.800000     16.755000
C          14.465000     -7.560000     15.841000
C          13.232000     -7.824000     16.453000
N           9.399000     -9.553000     17.216000
S          10.062000     -7.050000     16.620000
C           8.442000     -8.793000     17.836000
C           8.700000     -7.419000     17.616000
C          14.841000    -17.141000      6.980000
H          12.583000    -16.980000      8.579000
H          12.254000    -15.526000     10.521000
H          16.373000    -14.342000     10.096000
H          12.480000    -14.849000     12.763000
H          15.167000     -6.744000     15.952000
H          12.841000     -7.246000     17.283000
H           7.535000     -9.278000     18.171000
H           7.997000     -6.599000     17.684000
H          15.852000    -16.862000      6.659000
C          13.884000    -16.803000      5.785000
H          14.865000    -18.231000      7.097000
H          12.823000    -16.693000      6.041000
H          13.817000    -17.626000      5.062000
C          14.319000    -15.520000      4.985000
H          15.163000    -15.738000      4.319000
C          14.498000    -14.189000      5.828000
H          13.524000    -15.351000      4.248000
H          14.974000    -13.447000      5.175000
H          15.131000    -14.302000      6.717000
C          13.131000    -13.734000      6.403000
H          12.417000    -13.758000      5.570000
C          13.242000    -12.442000      7.183000
H          12.789000    -14.547000      7.055000
H          13.132000    -12.633000      8.257000
H          12.520000    -11.668000      6.894000
H          14.266000    -12.057000      7.111000
$end

--------------------------------------------------------------

             Standard Nuclear Orientation (Angstroms)
    I     Atom           X                Y                Z
 ----------------------------------------------------------------
    1      C       2.1226526690    -0.1159663307    -1.1584432624
    2      C       1.4381774256     1.0789226515    -0.8559073780
    3      N       1.4873102858    -1.2839482646    -1.1896243179
    4      C       0.0853246357     1.0662897666    -0.6275091747
    5      C       0.1438681661    -1.3457311533    -0.9891495173
    6      C      -0.5874299903    -0.1500327033    -0.7730078434
    7      C      -2.1234721714    -0.1565275752    -0.5852786913
    8      C      -2.8824345551     0.9367782962    -1.0335167660
    9      C      -2.8364752172    -1.2248659091     0.0835866620
   10      N      -4.2613919871     0.9588649999    -0.9583996698
   11      N      -2.2329388934    -2.3410720932     0.6481747068
   12      C      -4.2225975445    -1.1703945781     0.1800789819
   13      C      -4.9266596526    -0.0794272285    -0.3620019990
   14      S      -3.5017240776    -3.2410172965     1.1474760063
   15      N      -4.7915865088    -2.2693879405     0.7198040489
   16      C      -6.3465855388    -0.0334915592    -0.5286074972
   17      S      -7.4562496890    -1.3413828695    -0.3637930738
   18      C      -7.0911338555     1.0586033944    -0.9442147835
   19      C      -8.8813536578    -0.3405596491    -0.6059429441
   20      S      -6.5975870791     2.6807009559    -1.4311717430
   21      C      -8.4922369483     0.8885215436    -1.0987731462
   22      C     -10.2191054320    -0.4930835502    -0.0119104112
   23      C      -8.2742649833     3.1168796447    -1.6821027236
   24      C      -9.1085448363     2.0866753772    -1.4285730527
   25      N     -10.6277321356    -1.7162451473     0.1386781825
   26      S     -11.1118477807     0.7715384652     0.7944569101
   27      C     -11.8129790797    -1.6819660962     0.8177220900
   28      C     -12.2679556542    -0.4627067780     1.1622275785
   29      C       3.6393051166    -0.0066307468    -1.4965513565
   30      H       2.0349093331     1.9858302852    -0.8147543151
   31      H      -0.4595305318     1.9705373438    -0.3724265108
   32      H      -0.2699719145    -2.3037204955    -0.6782752537
   33      H      -2.3805319344     1.7852034484    -1.4962418685
   34      H      -8.5355483909     4.1467410789    -1.8839601170
   35      H     -10.1898660276     1.9998095737    -1.4229327108
   36      H     -12.3469210178    -2.6217612467     0.8746701533
   37      H     -13.1864409988    -0.2570018870     1.6948289017
   38      H       4.1828834193     0.5064192983    -0.6946066701
   39      C       3.9682961341     0.5274296145    -2.8772227297
   40      H       4.0323430492    -1.0276372803    -1.4166461500
   41      H       3.7180714884     1.5955194098    -2.8817851758
   42      H       3.2838093938    -0.0216295214    -3.5354240420
   43      C       5.3987417675     0.3395393196    -3.4075212559
   44      H       6.1415548726     0.9224498577    -2.8491253430
   45      C       5.3563182029     0.4264678998    -5.0248661984
   46      H       5.6449712441    -0.7237256591    -3.2916090915
   47      H       4.9629066523     1.4276132170    -5.2376111297
   48      H       4.6379437511    -0.2820150027    -5.4554171523
   49      C       6.7243131845     0.3327200155    -5.6467295793
   50      H       7.3678337199     1.1777884006    -5.3742396804
   51      C       6.5849049094     0.3695049720    -7.1448244361
   52      H       7.2411019586    -0.5326471248    -5.2116777714
   53      H       7.4561147164    -0.0195216863    -7.6865445958
   54      H       6.5260343499     1.4392047138    -7.3766642937
   55      H       5.7470268682    -0.1273093087    -7.6503706342
   56      C       2.5967261697    -6.0386907692     1.4762384150
   57      C       1.6035333789    -5.1812265650     1.0289083145
   58      N       3.5975981805    -5.6720986418     2.3037475873
   59      C       1.6963870369    -3.8291249371     1.3131149049
   60      C       3.6990681864    -4.2916645981     2.4846196106
   61      C       2.8054662424    -3.3289467253     2.0487493742
   62      C       2.9932180550    -1.8452537923     2.1443450723
   63      C       1.9117784282    -0.9102630557     2.2002168525
   64      C       4.2732179179    -1.2894252531     1.9311433229
   65      N       2.1451249264     0.4518390817     2.2412799633
   66      N       5.3737451916    -2.0416883948     1.6910019365
   67      C       4.4504347503     0.1194417750     1.9257682423
   68      C       3.3397530912     1.0031787647     2.0784023963
   69      S       6.4921192915    -0.9847475691     1.1776692338
   70      N       5.6288597031     0.4145922480     1.3748010663
   71      C       3.2864712868     2.4774329652     1.8364900118
   72      S       1.7619464405     3.3285210830     1.4553837161
   73      C       4.3734233935     3.3625655197     1.8357980959
   74      C       2.6817063511     4.8407036396     1.1981005600
   75      S       5.9001192959     3.1937610908     2.5599207970
   76      C       3.9488435541     4.6372275454     1.6275418107
   77      C       2.2909768241     6.0578563262     0.6491672543
   78      C       6.2029417698     4.9678866210     2.2922416000
   79      C       5.0027603644     5.6105011483     1.9588646908
   80      N       0.9928189935     6.2126204959     0.6093012454
   81      S       3.2874447341     7.1179668859    -0.3780358929
   82      C       0.6625938432     7.4096161818     0.0296447282
   83      C       1.8185711614     8.0158979003    -0.5171449184
   84      C       2.6152796859    -7.5356396012     1.1765486394
   85      H       0.7098351361    -5.6117321425     0.5856618836
   86      H       0.8960727125    -3.1965164280     0.9403020076
   87      H       4.6431740306    -3.9660469312     2.9191139028
   88      H       0.8610495464    -1.1961287572     2.1785231285
   89      H       7.1982349112     5.3482756515     2.4811244953
   90      H       4.8809852822     6.6880097863     1.9621759381
   91      H      -0.3810221755     7.6192735052    -0.1627309777
   92      H       1.8612285015     8.7704464975    -1.2917866199
   93      H       3.5892794546    -7.8911305345     1.5342547295
   94      C       2.5233877953    -7.9332945355    -0.3372361648
   95      H       1.8721865695    -8.1245980673     1.7272804668
   96      H       1.7927007399    -7.3728300244    -0.9333342766
   97      H       2.1359056890    -8.9507470805    -0.4757819550
   98      C       3.9066392014    -7.8605294503    -1.0833157785
   99      H       4.5332772797    -8.7266882794    -0.8373287839
  100      C       4.6753291031    -6.4754905897    -1.0123637553
  101      H       3.6826488708    -8.0711746888    -2.1365070789
  102      H       5.6843415433    -6.6379364786    -1.4111797889
  103      H       4.7815548831    -6.0721263590     0.0024231095
  104      C       3.8724361103    -5.3808818652    -1.7630524940
  105      H       3.6031325159    -5.8037556130    -2.7392258226
  106      C       4.5863450715    -4.0466007642    -1.7594554885
  107      H       2.9086953815    -5.3011659685    -1.2454752693
  108      H       4.0759654885    -3.3415736253    -1.0927423458
  109      H       4.6874480511    -3.5775714025    -2.7462029969
  110      H       5.5686479217    -4.1575639496    -1.2853739743
 ----------------------------------------------------------------

   10   -5663.4540958605      4.94E-06 Convergence criterion met
 Total energy in the final basis set = -5663.4540958605

                    Orbital Energies (a.u.)
 --------------------------------------------------------------

 Alpha MOs
 -- Occupied --
-88.993 -88.985 -88.938 -88.931 -88.928 -88.922 -88.909 -88.908
-14.395 -14.395 -14.380 -14.378 -14.354 -14.345 -14.344 -14.339
-14.328 -14.327 -10.266 -10.265 -10.265 -10.263 -10.262 -10.258
-10.255 -10.254 -10.244 -10.244 -10.242 -10.239 -10.238 -10.238
-10.236 -10.236 -10.233 -10.231 -10.228 -10.227 -10.226 -10.226
-10.226 -10.225 -10.225 -10.223 -10.222 -10.218 -10.217 -10.214
-10.208 -10.206 -10.205 -10.204 -10.202 -10.196 -10.190 -10.189
-10.180 -10.178 -10.178 -10.178 -10.178 -10.177 -10.175 -10.171
-10.169 -10.163 -10.158 -10.154  -8.048  -8.040  -7.999  -7.992
 -7.985  -7.981  -7.970  -7.968  -6.013  -6.007  -6.006  -6.005
 -6.000  -5.998  -5.962  -5.960  -5.956  -5.955  -5.953  -5.950
 -5.949  -5.946  -5.946  -5.942  -5.942  -5.938  -5.935  -5.932
 -5.931  -5.928  -5.926  -5.924  -1.035  -1.034  -0.980  -0.979
 -0.951  -0.951  -0.936  -0.926  -0.918  -0.916  -0.905  -0.901
 -0.852  -0.843  -0.829  -0.829  -0.816  -0.814  -0.808  -0.803
 -0.802  -0.800  -0.796  -0.790  -0.785  -0.771  -0.769  -0.761
 -0.750  -0.744  -0.742  -0.736  -0.728  -0.725  -0.709  -0.700
 -0.695  -0.686  -0.674  -0.670  -0.651  -0.648  -0.647  -0.643
 -0.636  -0.631  -0.626  -0.623  -0.611  -0.608  -0.602  -0.600
 -0.596  -0.594  -0.582  -0.580  -0.575  -0.574  -0.572  -0.546
 -0.544  -0.544  -0.542  -0.540  -0.527  -0.525  -0.521  -0.521
 -0.507  -0.505  -0.501  -0.497  -0.488  -0.479  -0.475  -0.473
 -0.470  -0.469  -0.467  -0.465  -0.461  -0.453  -0.451  -0.449
 -0.446  -0.445  -0.442  -0.439  -0.437  -0.434  -0.433  -0.427
 -0.425  -0.425  -0.423  -0.421  -0.417  -0.416  -0.413  -0.412
 -0.409  -0.407  -0.403  -0.400  -0.398  -0.396  -0.396  -0.395
 -0.394  -0.392  -0.391  -0.389  -0.387  -0.384  -0.383  -0.381
 -0.378  -0.375  -0.373  -0.370  -0.365  -0.359  -0.356  -0.354
 -0.352  -0.351  -0.349  -0.348  -0.346  -0.343  -0.340  -0.338
 -0.334  -0.333  -0.329  -0.327  -0.323  -0.319  -0.318  -0.315
 -0.310  -0.309  -0.307  -0.306  -0.305  -0.300  -0.297  -0.297
 -0.296  -0.293  -0.289  -0.289  -0.287  -0.287  -0.285  -0.278
 -0.275  -0.269  -0.265  -0.261  -0.257  -0.254  -0.248  -0.247
 -0.245  -0.239  -0.234  -0.232  -0.197  -0.190

          Ground-State Mulliken Net Atomic Charges

     Atom                 Charge (a.u.)
  ----------------------------------------
      1 C                     0.270974
      2 C                    -0.102397
      3 N                    -0.493744
      4 C                    -0.058413
      5 C                     0.056332
      6 C                     0.017128
      7 C                     0.020978
      8 C                     0.064650
      9 C                     0.227252
     10 N                    -0.539582
     11 N                    -0.563136
     12 C                     0.221225
     13 C                     0.320568
     14 S                     0.608532
     15 N                    -0.564762
     16 C                    -0.214653
     17 S                     0.351373
     18 C                    -0.128215
     19 C                    -0.217191
     20 S                     0.287270
     21 C                     0.129018
     22 C                     0.040045
     23 C                    -0.328927
     24 C                    -0.048446
     25 N                    -0.405598
     26 S                     0.282045
     27 C                     0.117071
     28 C                    -0.303534
     29 C                    -0.261147
     30 H                     0.107352
     31 H                     0.111778
     32 H                     0.127993
     33 H                     0.121240
     34 H                     0.133225
     35 H                     0.102257
     36 H                     0.111003
     37 H                     0.132935
     38 H                     0.113084
     39 C                    -0.168247
     40 H                     0.118214
     41 H                     0.090957
     42 H                     0.103029
     43 C                    -0.195325
     44 H                     0.096016
     45 C                    -0.171380
     46 H                     0.100705
     47 H                     0.090858
     48 H                     0.100373
     49 C                    -0.174027
     50 H                     0.095953
     51 C                    -0.320424
     52 H                     0.090838
     53 H                     0.096505
     54 H                     0.104478
     55 H                     0.102281
     56 C                     0.283210
     57 C                    -0.112876
     58 N                    -0.484789
     59 C                    -0.059717
     60 C                     0.054380
     61 C                     0.052950
     62 C                     0.038798
     63 C                     0.050104
     64 C                     0.215853
     65 N                    -0.521464
     66 N                    -0.547852
     67 C                     0.199406
     68 C                     0.306047
     69 S                     0.604770
     70 N                    -0.538672
     71 C                    -0.238011
     72 S                     0.342676
     73 C                    -0.104572
     74 C                    -0.188146
     75 S                     0.269677
     76 C                     0.106310
     77 C                     0.036659
     78 C                    -0.309170
     79 C                    -0.068095
     80 N                    -0.420211
     81 S                     0.290169
     82 C                     0.114470
     83 C                    -0.310432
     84 C                    -0.239398
     85 H                     0.092032
     86 H                     0.104563
     87 H                     0.116207
     88 H                     0.129556
     89 H                     0.136840
     90 H                     0.118384
     91 H                     0.123866
     92 H                     0.128880
     93 H                     0.128725
     94 C                    -0.190948
     95 H                     0.106848
     96 H                     0.094303
     97 H                     0.087328
     98 C                    -0.187524
     99 H                     0.085809
    100 C                    -0.192496
    101 H                     0.084165
    102 H                     0.084777
    103 H                     0.117170
    104 C                    -0.171741
    105 H                     0.082025
    106 C                    -0.341321
    107 H                     0.105598
    108 H                     0.131023
    109 H                     0.098202
    110 H                     0.099270
  ----------------------------------------
  Sum of atomic charges =     0.000000

                    Cartesian Multipole Moments
 -----------------------------------------------------------------
    Charge (ESU x 10^10)
                 0.0000
    Dipole Moment (Debye)
         X      -1.5673      Y       5.6843      Z      -0.9625
       Tot       5.9745
    Quadrupole Moments (Debye-Ang)
        XX    -392.8709     XY      17.6424     YY    -417.4655
        XZ     -14.1325     YZ      -6.4199     ZZ    -455.0743

 Total job time:  111.44s(wall), 1234.40s(cpu)
        *  Thank you very much for using Q-Chem.  Have a nice day.  *
