 Q-Chem 4.4, Q-Chem, Inc., Pleasanton, CA (2016)
 Q-Chem 4.4.2 for Intel X86 Linux

User input:
--------------------------------------------------------------
$comment
SP
$end

$rem
MEM_STATIC 5000
MEM_TOTAL 20000
JOBTYPE SP
EXCHANGE B3LYP
BASIS 6-31g(d,p)
$end

$molecule
0 1
C          19.253000    -27.008000     13.332000
C          20.454000    -26.339000     13.126000
N          18.213000    -26.870000     12.410000
C          20.659000    -25.569000     12.027000
C          18.444000    -26.249000     11.210000
C          19.657000    -25.484000     10.976000
C          19.788000    -24.576000      9.768000
C          18.709000    -23.800000      9.398000
C          21.036000    -24.411000      9.156000
N          18.938000    -22.793000      8.483000
N          22.163000    -25.123000      9.425000
C          21.149000    -23.493000      8.135000
C          20.091000    -22.581000      7.876000
S          23.288000    -24.516000      8.322000
N          22.376000    -23.391000      7.490000
C          20.146000    -21.594000      6.784000
S          21.207000    -21.606000      5.371000
C          19.520000    -20.361000      6.816000
C          20.595000    -20.045000      4.768000
S          18.607000    -19.599000      8.052000
C          19.783000    -19.551000      5.739000
C          21.000000    -19.381000      3.527000
C          18.629000    -18.042000      7.154000
C          19.348000    -18.260000      5.958000
N          21.052000    -18.026000      3.403000
S          21.876000    -20.234000      2.267000
C          21.698000    -17.688000      2.259000
C          22.200000    -18.717000      1.473000
C          18.874000    -27.740000     14.603000
H          21.158000    -26.383000     13.952000
H          21.513000    -24.912000     11.893000
H          17.550000    -26.127000     10.601000
H          17.724000    -24.011000      9.811000
H          18.105000    -17.137000      7.431000
H          19.579000    -17.446000      5.280000
H          21.601000    -16.677000      1.886000
H          22.661000    -18.593000      0.502000
H          18.074000    -28.450000     14.363000
C          18.343000    -26.846000     15.709000
H          19.757000    -28.329000     14.882000
H          19.251000    -26.365000     16.092000
H          17.942000    -27.475000     16.513000
C          17.219000    -25.763000     15.380000
H          17.139000    -25.019000     16.183000
C          15.960000    -26.460000     14.877000
H          17.508000    -25.238000     14.461000
H          15.830000    -27.255000     15.623000
H          16.118000    -26.994000     13.932000
C          14.654000    -25.584000     14.814000
H          13.758000    -26.216000     14.863000
C          14.634000    -24.736000     13.529000
H          14.621000    -24.871000     15.647000
H          13.901000    -23.921000     13.581000
H          14.310000    -25.337000     12.671000
H          15.552000    -24.152000     13.385000
C          14.598000    -16.363000      8.271000
C          13.370000    -16.309000      8.912000
N          15.733000    -15.823000      8.762000
C          13.235000    -15.539000     10.055000
C          15.527000    -14.986000      9.860000
C          14.345000    -14.806000     10.557000
C          14.112000    -13.812000     11.654000
C          13.136000    -13.983000     12.686000
C          14.692000    -12.528000     11.566000
N          12.933000    -13.010000     13.647000
N          15.506000    -12.154000     10.550000
C          14.406000    -11.544000     12.549000
C          13.489000    -11.807000     13.611000
S          15.631000    -10.543000     10.693000
N          14.766000    -10.344000     12.091000
C          12.868000    -10.836000     14.563000
S          11.320000    -11.168000     15.392000
C          13.362000     -9.569000     14.903000
C          11.348000     -9.519000     16.084000
S          14.944000     -8.963000     14.786000
C          12.565000     -8.982000     15.835000
C          10.364000     -8.800000     16.755000
C          14.465000     -7.560000     15.841000
C          13.232000     -7.824000     16.453000
N           9.399000     -9.553000     17.216000
S          10.062000     -7.050000     16.620000
C           8.442000     -8.793000     17.836000
C           8.700000     -7.419000     17.616000
C          14.841000    -17.141000      6.980000
H          12.583000    -16.980000      8.579000
H          12.254000    -15.526000     10.521000
H          16.373000    -14.342000     10.096000
H          12.480000    -14.849000     12.763000
H          15.167000     -6.744000     15.952000
H          12.841000     -7.246000     17.283000
H           7.535000     -9.278000     18.171000
H           7.997000     -6.599000     17.684000
H          15.852000    -16.862000      6.659000
C          13.884000    -16.803000      5.785000
H          14.865000    -18.231000      7.097000
H          12.823000    -16.693000      6.041000
H          13.817000    -17.626000      5.062000
C          14.319000    -15.520000      4.985000
H          15.163000    -15.738000      4.319000
C          14.498000    -14.189000      5.828000
H          13.524000    -15.351000      4.248000
H          14.974000    -13.447000      5.175000
H          15.131000    -14.302000      6.717000
C          13.131000    -13.734000      6.403000
H          12.417000    -13.758000      5.570000
C          13.242000    -12.442000      7.183000
H          12.789000    -14.547000      7.055000
H          13.132000    -12.633000      8.257000
H          12.520000    -11.668000      6.894000
H          14.266000    -12.057000      7.111000
$end

--------------------------------------------------------------

             Standard Nuclear Orientation (Angstroms)
    I     Atom           X                Y                Z
 ----------------------------------------------------------------
    1      C      -8.1094113060    -6.5873919000    -0.3224737159
    2      C      -8.2110673527    -5.8346509752    -1.4867095805
    3      N      -7.8293201563    -5.9562128149     0.8915649615
    4      C      -8.0731569839    -4.4842634895    -1.4740459078
    5      C      -7.8595341010    -4.5881002193     0.9712960309
    6      C      -7.8992292684    -3.7620519464    -0.2234501950
    7      C      -7.6531773303    -2.2671244526    -0.1490241792
    8      C      -6.6454438470    -1.7979029412     0.6680568448
    9      C      -8.3267497662    -1.4085034999    -1.0255760792
   10      N      -6.2628804790    -0.4818527588     0.5087703515
   11      N      -9.3410910853    -1.7508700079    -1.8642243145
   12      C      -7.9983279986    -0.0706177054    -1.0139681807
   13      C      -6.8517249664     0.3758249962    -0.3039122669
   14      S      -9.7722372941    -0.2855261440    -2.5836430433
   15      N      -8.7244091268     0.7806253694    -1.8386799018
   16      C      -6.4650815293     1.7955667760    -0.2368441586
   17      S      -7.4746032791     3.2060138790    -0.5743923868
   18      C      -5.1617726882     2.2433419095    -0.1182166125
   19      C      -6.1364739135     4.3549087787    -0.3207700092
   20      S      -3.6792124153     1.3815849281    -0.0821757741
   21      C      -5.0113264559     3.6068287816    -0.1771019314
   22      C      -6.2288690608     5.8150468351    -0.3875681607
   23      C      -2.7485676780     2.9101091453    -0.2514421041
   24      C      -3.6859630994     3.9646442495    -0.3158357206
   25      N      -5.2033022492     6.5958655961    -0.8264756424
   26      S      -7.7757920377     6.6447366527    -0.3525094959
   27      C      -5.6389780098     7.8641137172    -1.0314862148
   28      C      -6.9840058892     8.1285313526    -0.8087210517
   29      C      -8.0736821797    -8.1008727676    -0.2676549869
   30      H      -8.2897793668    -6.4084433390    -2.4056191202
   31      H      -7.9947050071    -3.8705831913    -2.3663254486
   32      H      -7.5514828709    -4.1991694496     1.9402327141
   33      H      -6.2036493177    -2.4559820554     1.4144243638
   34      H      -1.6722199929     3.0108597212    -0.2107606300
   35      H      -3.3767969645     4.9858772823    -0.5085541519
   36      H      -4.9080512214     8.6557101967    -1.1303803179
   37      H      -7.4439035426     9.1068581077    -0.8546439080
   38      H      -8.3520448242    -8.4129190594     0.7456768195
   39      C      -6.7113473856    -8.7083121988    -0.5496022269
   40      H      -8.8695620568    -8.4421362072    -0.9418697050
   41      H      -6.6187442219    -8.6071561082    -1.6375848092
   42      H      -6.7462818882    -9.7807364134    -0.3225694439
   43      C      -5.4200396266    -8.1324598634     0.1889262826
   44      H      -4.4991217852    -8.4632720252    -0.3082845810
   45      C      -5.5628417666    -8.3112088439     1.6960942728
   46      H      -5.4564166064    -7.0371156750     0.1378888043
   47      H      -5.8806281018    -9.3596118144     1.7689232274
   48      H      -6.4011477830    -7.7409461200     2.1146494647
   49      C      -4.2588201750    -8.0998951894     2.5515796485
   50      H      -4.3270768891    -8.6381406120     3.5056623943
   51      C      -4.0167111091    -6.6007200638     2.8057176878
   52      H      -3.3746538432    -8.4615161274     2.0122956835
   53      H      -2.9930822889    -6.3973169897     3.1448772783
   54      H      -4.6500442680    -6.2373162322     3.6237444386
   55      H      -4.0310404118    -6.0010837635     1.8866165082
   56      C       0.9102815282     1.9498386175     2.1993524609
   57      C       1.7613608522     1.1783421457     2.9753925232
   58      N       0.9808996086     2.0358563703     0.8545401941
   59      C       2.8489102303     0.5611990566     2.3804599575
   60      C       2.1403618642     1.4748845207     0.3164260223
   61      C       3.0910457494     0.7274367466     0.9893710240
   62      C       4.3896921773     0.2387501500     0.4232995924
   63      C       5.0772053814    -0.9214946091     0.9007916794
   64      C       5.1203398257     1.0642131418    -0.4584967916
   65      N       6.2968504508    -1.2991858203     0.3704387273
   66      N       4.6791112262     2.2768276043    -0.8703359452
   67      C       6.3959426956     0.6560254139    -0.9302606064
   68      C       6.9917743113    -0.5624704275    -0.4851150454
   69      S       5.9706334780     2.9726207564    -1.5626055188
   70      N       7.0329341465     1.7074651618    -1.4480253676
   71      C       8.4047662962    -1.0205728730    -0.6535840332
   72      S       9.1620403425    -2.2072171107     0.4474066443
   73      C       9.3129758433    -0.5834501634    -1.6277524762
   74      C      10.7232912752    -1.9774245998    -0.3943414931
   75      S       9.0111741714     0.1424127507    -3.1329726530
   76      C      10.4923719071    -1.2497646259    -1.5117698836
   77      C      12.0060894492    -2.3970831602    -0.0570381613
   78      C      10.7418156892    -0.1612154262    -3.6057991191
   79      C      11.3283605949    -1.0653058430    -2.7096325098
   80      N      12.0177558806    -3.3576400640     0.8306269383
   81      S      13.5144427727    -1.4867934092    -0.3181355008
   82      C      13.3029175793    -3.7084058600     1.1518305570
   83      C      14.2124187947    -2.7941482061     0.5689236334
   84      C      -0.2869662048     2.7107525588     2.7638184383
   85      H       1.4756121767     0.9668235619     4.0020894517
   86      H       3.4882721900    -0.0309371678     3.0287476839
   87      H       2.3422358701     1.7674984055    -0.7130262593
   88      H       4.7161425785    -1.5483071137     1.7150156882
   89      H      11.1068298514     0.2915862966    -4.5183320014
   90      H      12.2721805274    -1.5652012740    -2.8971784863
   91      H      13.4591230624    -4.4187442999     1.9525290944
   92      H      15.2314912512    -2.5955797766     0.8743657838
   93      H      -0.6538361654     3.3297909985     1.9360498461
   94      C       0.0192232732     3.6883408692     3.9506996872
   95      H      -1.1370966677     2.0817541592     3.0536532349
   96      H       0.7009530470     3.3048167272     4.7197970465
   97      H      -0.8676561945     3.8820858469     4.5675097822
   98      C       0.5673902918     5.0854697293     3.4786214438
   99      H      -0.2428591348     5.7176551689     3.0948852890
  100      C       1.8534685726     5.0628736391     2.5513981307
  101      H       0.8214415364     5.6263733606     4.3987498191
  102      H       1.9971780779     6.0786346555     2.1626486796
  103      H       1.7748657232     4.3871305600     1.6906008938
  104      C       3.0709278700     4.5150943335     3.3413789480
  105      H       3.0970249604     5.0593492732     4.2939368216
  106      C       4.3355982199     4.5124932704     2.5103632198
  107      H       2.8060376762     3.4932336770     3.6391556828
  108      H       4.6112644868     3.4872340200     2.2366689033
  109      H       5.2009905018     4.9865482108     2.9902060189
  110      H       4.1357050894     4.9756139799     1.5369429895
 ----------------------------------------------------------------

   10   -5663.4527619559      4.66E-06 Convergence criterion met
 Total energy in the final basis set = -5663.4527619559

                    Orbital Energies (a.u.)
 --------------------------------------------------------------

 Alpha MOs
 -- Occupied --
-88.988 -88.986 -88.936 -88.926 -88.926 -88.923 -88.908 -88.900
-14.399 -14.392 -14.382 -14.380 -14.347 -14.346 -14.344 -14.343
-14.337 -14.331 -10.273 -10.265 -10.263 -10.263 -10.257 -10.256
-10.256 -10.255 -10.247 -10.245 -10.242 -10.239 -10.238 -10.237
-10.236 -10.235 -10.232 -10.231 -10.230 -10.230 -10.229 -10.228
-10.227 -10.225 -10.225 -10.224 -10.222 -10.220 -10.218 -10.216
-10.214 -10.213 -10.211 -10.204 -10.197 -10.197 -10.193 -10.185
-10.184 -10.182 -10.182 -10.182 -10.175 -10.173 -10.173 -10.170
-10.166 -10.163 -10.163 -10.163  -8.043  -8.041  -7.997  -7.987
 -7.983  -7.982  -7.969  -7.960  -6.008  -6.007  -6.003  -6.001
 -6.001  -5.999  -5.961  -5.958  -5.954  -5.951  -5.947  -5.947
 -5.946  -5.944  -5.944  -5.943  -5.939  -5.939  -5.934  -5.930
 -5.925  -5.925  -5.921  -5.917  -1.035  -1.025  -0.977  -0.961
 -0.956  -0.952  -0.935  -0.921  -0.916  -0.915  -0.902  -0.901
 -0.842  -0.838  -0.833  -0.828  -0.815  -0.805  -0.803  -0.802
 -0.801  -0.800  -0.796  -0.794  -0.780  -0.777  -0.766  -0.765
 -0.745  -0.744  -0.740  -0.735  -0.726  -0.716  -0.705  -0.703
 -0.689  -0.689  -0.671  -0.670  -0.653  -0.652  -0.647  -0.646
 -0.635  -0.633  -0.629  -0.621  -0.613  -0.609  -0.604  -0.596
 -0.595  -0.587  -0.585  -0.579  -0.577  -0.575  -0.553  -0.551
 -0.550  -0.545  -0.541  -0.535  -0.526  -0.522  -0.521  -0.508
 -0.507  -0.502  -0.501  -0.496  -0.483  -0.480  -0.477  -0.471
 -0.469  -0.467  -0.466  -0.465  -0.458  -0.456  -0.452  -0.452
 -0.445  -0.441  -0.439  -0.437  -0.436  -0.434  -0.432  -0.430
 -0.428  -0.427  -0.427  -0.422  -0.418  -0.414  -0.410  -0.409
 -0.408  -0.408  -0.401  -0.398  -0.397  -0.397  -0.396  -0.394
 -0.394  -0.391  -0.391  -0.389  -0.388  -0.387  -0.382  -0.379
 -0.374  -0.372  -0.369  -0.368  -0.363  -0.363  -0.357  -0.357
 -0.351  -0.350  -0.349  -0.348  -0.348  -0.342  -0.335  -0.333
 -0.332  -0.331  -0.331  -0.329  -0.326  -0.321  -0.318  -0.313
 -0.313  -0.310  -0.306  -0.306  -0.300  -0.298  -0.296  -0.295
 -0.294  -0.290  -0.289  -0.289  -0.285  -0.284  -0.282  -0.279
 -0.272  -0.272  -0.266  -0.262  -0.256  -0.253  -0.249  -0.246
 -0.245  -0.241  -0.236  -0.229  -0.190  -0.190

          Ground-State Mulliken Net Atomic Charges

     Atom                 Charge (a.u.)
  ----------------------------------------
      1 C                     0.253237
      2 C                    -0.107989
      3 N                    -0.466186
      4 C                    -0.041968
      5 C                     0.053548
      6 C                     0.011629
      7 C                     0.012790
      8 C                     0.082360
      9 C                     0.279100
     10 N                    -0.513648
     11 N                    -0.563952
     12 C                     0.146811
     13 C                     0.297241
     14 S                     0.596479
     15 N                    -0.540105
     16 C                    -0.201384
     17 S                     0.328973
     18 C                    -0.120044
     19 C                    -0.236968
     20 S                     0.254448
     21 C                     0.182581
     22 C                     0.033772
     23 C                    -0.321262
     24 C                    -0.079489
     25 N                    -0.418550
     26 S                     0.273617
     27 C                     0.121292
     28 C                    -0.308448
     29 C                    -0.228282
     30 H                     0.090567
     31 H                     0.107962
     32 H                     0.103398
     33 H                     0.129115
     34 H                     0.159972
     35 H                     0.127597
     36 H                     0.113076
     37 H                     0.137913
     38 H                     0.122018
     39 C                    -0.183866
     40 H                     0.100298
     41 H                     0.084011
     42 H                     0.097765
     43 C                    -0.177638
     44 H                     0.091344
     45 C                    -0.179310
     46 H                     0.105834
     47 H                     0.070860
     48 H                     0.127761
     49 C                    -0.180279
     50 H                     0.091032
     51 C                    -0.316940
     52 H                     0.089699
     53 H                     0.090411
     54 H                     0.103521
     55 H                     0.104669
     56 C                     0.290717
     57 C                    -0.108262
     58 N                    -0.497383
     59 C                    -0.079387
     60 C                     0.060697
     61 C                     0.058988
     62 C                     0.022501
     63 C                     0.050545
     64 C                     0.208741
     65 N                    -0.522515
     66 N                    -0.550165
     67 C                     0.204812
     68 C                     0.310670
     69 S                     0.604025
     70 N                    -0.531911
     71 C                    -0.228090
     72 S                     0.346905
     73 C                    -0.100325
     74 C                    -0.180681
     75 S                     0.268316
     76 C                     0.102397
     77 C                     0.039752
     78 C                    -0.308818
     79 C                    -0.068224
     80 N                    -0.417357
     81 S                     0.292370
     82 C                     0.114765
     83 C                    -0.310252
     84 C                    -0.244108
     85 H                     0.099909
     86 H                     0.099201
     87 H                     0.120452
     88 H                     0.121693
     89 H                     0.136280
     90 H                     0.118235
     91 H                     0.124087
     92 H                     0.128644
     93 H                     0.127783
     94 C                    -0.192288
     95 H                     0.119451
     96 H                     0.093140
     97 H                     0.092888
     98 C                    -0.189845
     99 H                     0.090147
    100 C                    -0.191630
    101 H                     0.085322
    102 H                     0.087516
    103 H                     0.114788
    104 C                    -0.170521
    105 H                     0.084994
    106 C                    -0.332749
    107 H                     0.099143
    108 H                     0.106523
    109 H                     0.101118
    110 H                     0.106603
  ----------------------------------------
  Sum of atomic charges =     0.000000

                    Cartesian Multipole Moments
 -----------------------------------------------------------------
    Charge (ESU x 10^10)
                 0.0000
    Dipole Moment (Debye)
         X       3.4059      Y       1.7663      Z      -1.2526
       Tot       4.0360
    Quadrupole Moments (Debye-Ang)
        XX    -362.7409     XY     -10.8049     YY    -427.7500
        XZ       8.5140     YZ       3.3629     ZZ    -430.1312

 Total job time:  97.14s(wall), 1059.28s(cpu)
        *  Thank you very much for using Q-Chem.  Have a nice day.  *
