 Q-Chem 4.4, Q-Chem, Inc., Pleasanton, CA (2016)
 Q-Chem 4.4.2 for Intel X86 Linux

User input:
--------------------------------------------------------------
$comment
SP
$end

$rem
MEM_STATIC 5000
MEM_TOTAL 20000
JOBTYPE SP
EXCHANGE B3LYP
BASIS 6-31g(d,p)
$end

$molecule
0 1
C          24.007000     22.007000     -1.331000
C          24.077000     23.260000     -0.668000
N          22.866000     21.323000     -1.517000
C          22.898000     23.819000     -0.150000
C          21.759000     21.825000     -0.908000
C          21.682000     23.063000     -0.295000
C          20.350000     23.640000      0.173000
C          20.253000     25.020000      0.112000
C          19.194000     22.993000      0.593000
N          19.096000     25.743000      0.325000
N          19.083000     21.674000      0.663000
C          18.027000     23.707000      0.895000
C          17.990000     25.145000      0.849000
S          17.655000     21.440000      1.440000
N          16.988000     22.922000      1.290000
C          16.751000     25.917000      1.102000
S          15.078000     25.274000      1.327000
C          16.758000     27.287000      1.419000
C          14.434000     26.905000      1.553000
S          18.116000     28.386000      1.788000
C          15.443000     27.821000      1.652000
C          13.069000     27.221000      1.604000
C          16.922000     29.609000      1.948000
C          15.560000     29.193000      1.950000
N          12.719000     28.472000      1.819000
S          11.844000     26.007000      1.563000
C          11.357000     28.556000      1.912000
C          10.705000     27.315000      1.750000
C          25.225000     21.228000     -1.767000
H          25.034000     23.712000     -0.424000
H          22.960000     24.695000      0.489000
H          20.862000     21.215000     -1.003000
H          21.118000     25.635000     -0.135000
H          17.433000     30.534000      2.181000
H          14.728000     29.868000      2.118000
H          10.945000     29.546000      2.055000
H           9.659000     27.124000      1.549000
H          25.971000     21.881000     -2.236000
C          24.893000     19.893000     -2.555000
H          25.717000     20.841000     -0.866000
H          24.232000     20.008000     -3.423000
H          24.394000     19.155000     -1.915000
C          26.193000     19.229000     -2.974000
H          26.814000     19.856000     -3.625000
C          25.949000     17.847000     -3.592000
H          26.847000     19.072000     -2.108000
H          25.173000     17.399000     -2.959000
H          26.828000     17.197000     -3.685000
C          25.382000     17.992000     -5.086000
H          24.314000     18.222000     -4.992000
C          25.479000     16.730000     -5.898000
H          25.816000     18.856000     -5.605000
H          26.464000     16.264000     -6.027000
H          25.043000     16.832000     -6.899000
H          24.805000     16.006000     -5.424000
C          27.326000     30.690000      0.488000
C          25.995000     30.573000      1.046000
N          27.772000     29.932000     -0.494000
C          25.102000     29.674000      0.466000
C          26.872000     29.102000     -1.078000
C          25.502000     28.902000     -0.641000
C          24.556000     27.939000     -1.386000
C          25.082000     26.839000     -2.117000
C          23.099000     28.042000     -1.451000
N          24.350000     25.985000     -2.832000
N          22.370000     29.043000     -0.894000
C          22.375000     27.130000     -2.234000
C          23.017000     26.163000     -3.012000
S          20.856000     28.796000     -1.391000
N          21.060000     27.459000     -2.378000
C          22.313000     25.174000     -3.895000
S          20.591000     25.142000     -4.109000
C          22.872000     24.090000     -4.585000
C          20.707000     23.797000     -5.286000
S          24.564000     23.510000     -4.574000
C          21.968000     23.317000     -5.348000
C          19.644000     23.346000     -6.033000
C          24.088000     22.155000     -5.649000
C          22.648000     22.183000     -5.877000
N          18.879000     24.239000     -6.544000
S          19.247000     21.715000     -6.430000
C          17.745000     23.670000     -7.060000
C          17.770000     22.306000     -7.135000
C          28.464000     31.572000      1.074000
H          25.668000     31.196000      1.873000
H          24.112000     29.558000      0.897000
H          27.294000     28.560000     -1.924000
H          26.147000     26.616000     -2.072000
H          24.855000     21.454000     -5.951000
H          22.188000     21.487000     -6.569000
H          16.931000     24.284000     -7.423000
H          17.046000     21.541000     -7.383000
H          29.178000     31.964000      0.339000
C          29.126000     30.814000      2.201000
H          28.006000     32.452000      1.541000
H          29.186000     29.742000      1.979000
H          28.446000     30.822000      3.061000
C          30.585000     31.311000      2.418000
H          31.412000     30.848000      1.866000
C          31.086000     30.997000      3.831000
H          30.487000     32.381000      2.198000
H          30.918000     29.917000      3.920000
H          30.598000     31.582000      4.621000
C          32.635000     31.220000      3.941000
H          33.073000     30.648000      3.114000
C          33.101000     30.535000      5.286000
H          32.851000     32.286000      3.797000
H          32.672000     31.067000      6.145000
H          34.193000     30.614000      5.352000
H          32.890000     29.462000      5.371000
$end

--------------------------------------------------------------

             Standard Nuclear Orientation (Angstroms)
    I     Atom           X                Y                Z
 ----------------------------------------------------------------
    1      C      -1.8597694119    -3.2577683305    -2.0969793425
    2      C      -2.1852806874    -1.8946587373    -1.8723626774
    3      N      -0.6045798021    -3.7102713971    -2.2521341621
    4      C      -1.1487818352    -0.9487200370    -1.8309367819
    5      C       0.3698199297    -2.7649141701    -2.3240985710
    6      C       0.1927077772    -1.4193968036    -2.0547358014
    7      C       1.3771809115    -0.4645028178    -1.9480687019
    8      C       1.2099789796     0.5827126528    -1.0576119246
    9      C       2.6243244910    -0.5158167779    -2.5590881530
   10      N       2.2014179372     1.4656878596    -0.6779402540
   11      N       2.9837144415    -1.4755775921    -3.3997307899
   12      C       3.6249930160     0.4162077299    -2.2543229652
   13      C       3.3874372268     1.5074599385    -1.3465427802
   14      S       4.4095061101    -0.9437640291    -4.0177610899
   15      N       4.7843795687     0.2232611585    -2.9401548995
   16      C       4.4489263913     2.4664865035    -0.9610265011
   17      S       6.2076306754     2.3855415557    -1.3652667222
   18      C       4.1718079936     3.7194099348    -0.3858515112
   19      C       6.5217038423     3.8936640243    -0.4975699632
   20      S       2.6195834994     4.5686698481    -0.1460959705
   21      C       5.3539087369     4.4946800678    -0.1207778357
   22      C       7.7992731361     4.3973953434    -0.2151634164
   23      C       3.5530620724     5.8125131742     0.5808404326
   24      C       4.9689681259     5.7191783376     0.4599989831
   25      N       7.8978433786     5.5555395892     0.4034736447
   26      S       9.2345044710     3.6371875668    -0.7967965926
   27      C       9.2157572462     5.9048241914     0.5123419335
   28      C      10.0970601583     4.9541310714    -0.0452571776
   29      C      -2.8945774402    -4.3304517346    -2.3398448596
   30      H      -3.2170563492    -1.5556009357    -1.8853160956
   31      H      -1.3937123125     0.1092332682    -1.8140588345
   32      H       1.3690880212    -3.1453172434    -2.5302314974
   33      H       0.2500057550     0.7634950311    -0.5746749311
   34      H       2.8687121311     6.5854929345     0.9051897010
   35      H       5.6518645390     6.4832390656     0.8148745848
   36      H       9.4269476804     6.8273166488     1.0364595410
   37      H      11.1651268321     4.8582356839     0.0997795585
   38      H      -3.7393101157    -4.2359388585    -1.6467503328
   39      C      -2.2930728224    -5.7896093625    -2.4896587837
   40      H      -3.3266260930    -4.1620222028    -3.3341282470
   41      H      -1.6440300801    -6.1202192760    -1.6692865488
   42      H      -1.6788636948    -5.8867554029    -3.3932929986
   43      C      -3.4307753485    -6.7765851102    -2.6845147190
   44      H      -4.1431742575    -6.7924571062    -1.8509639562
   45      C      -2.9110266959    -8.1830155653    -3.0057602837
   46      H      -4.0648644790    -6.4785397427    -3.5279724438
   47      H      -2.0803144379    -8.0136833182    -3.7020452359
   48      H      -3.6467625661    -8.8897759992    -3.4094587087
   49      C      -2.3437499458    -8.8883562166    -1.6809049503
   50      H      -1.3422593039    -8.4745434981    -1.5131684660
   51      C      -2.1765198526   -10.3773077985    -1.8091791989
   52      H      -2.9214139786    -8.6089309470    -0.7907146427
   53      H      -3.0505248052   -10.9813191092    -2.0836016456
   54      H      -1.7423167105   -10.8367727630    -0.9131543232
   55      H      -1.3889822860   -10.5357538260    -2.5560442721
   56      C      -6.8242682135     4.0201997062     1.3820929342
   57      C      -5.5103624480     4.4926551536     0.9986200019
   58      N      -7.0914763899     2.7593020145     1.6587530174
   59      C      -4.4471865396     3.5917121583     1.0015707443
   60      C      -6.0345264162     1.9104987710     1.7071865480
   61      C      -4.6633461638     2.2513307819     1.3731696983
   62      C      -3.5316542421     1.2089427650     1.4732227671
   63      C      -3.8184400024    -0.1767913039     1.3370904121
   64      C      -2.1200710243     1.4923219329     1.7278049076
   65      N      -2.9183492556    -1.1522237622     1.4584706691
   66      N      -1.6106624007     2.7290735580     1.9615553560
   67      C      -1.2149757578     0.4291324619     1.8672312586
   68      C      -1.6398028800    -0.9017188561     1.8373366843
   69      S      -0.0650227348     2.4872436379     2.3523626141
   70      N       0.0160949635     0.8155035612     2.3069860230
   71      C      -0.7370149007    -2.0889176450     2.0075098319
   72      S       0.9642639837    -1.9567681240     2.3241968407
   73      C      -1.0603018029    -3.4427416158     1.8453887816
   74      C       1.1381753877    -3.7360237101     2.4328908290
   75      S      -2.6098308256    -4.1675904716     1.3229531930
   76      C      -0.0056960400    -4.3560557271     2.0702843552
   77      C       2.2867871020    -4.3637511928     2.8548248727
   78      C      -1.8557793470    -5.7934313057     1.4021614600
   79      C      -0.4423115645    -5.6704819290     1.7388516421
   80      N       2.8798224029    -3.8567436991     3.8721977312
   81      S       2.9985648854    -5.8024313088     2.2231992629
   82      C       4.1146895811    -4.4229019335     4.0469572968
   83      C       4.3529976976    -5.5287525712     3.2807656702
   84      C      -8.1247406787     4.8707286162     1.3404283164
   85      H      -5.3300823416     5.5345265601     0.7516583540
   86      H      -3.4647721856     3.9304403287     0.6862260700
   87      H      -6.3230213822     0.9038616191     2.0088756248
   88      H      -4.8219241101    -0.4998066205     1.0638510468
   89      H      -2.4664562437    -6.6485874021     1.1439449257
   90      H       0.1600774890    -6.5549888729     1.9110576074
   91      H       4.8053375511    -4.0333125638     4.7835620107
   92      H       5.2161268557    -6.1514614341     3.0854537956
   93      H      -8.8812671613     4.6061170138     2.0896501668
   94      C      -8.6584804371     4.8615758513    -0.0730691534
   95      H      -7.8557622407     5.9135964725     1.5461714432
   96      H      -8.5065606902     3.8861554987    -0.5500843800
   97      H      -8.0150595926     5.5064794853    -0.6831289207
   98      C     -10.1907245856     5.1351409687    -0.0860690037
   99      H     -10.8993247407     4.3015432800    -0.0085918227
  100      C     -10.6588205178     5.6712197882    -1.4424139811
  101      H     -10.2935347910     5.8454609263     0.7432557935
  102      H     -10.2897085388     4.9175915612    -2.1483501272
  103      H     -10.3123417867     6.6879709460    -1.6674441388
  104      C     -12.2241936254     5.6523117752    -1.5447835135
  105      H     -12.5231413565     4.6313812759    -1.2777850684
  106      C     -12.5852251415     5.8655205323    -3.0678082245
  107      H     -12.6363014373     6.3535012617    -0.8084082998
  108      H     -12.2882855927     6.8735239275    -3.3851441029
  109      H     -13.6735096179     5.7845985621    -3.1780331453
  110      H     -12.1751571266     5.1220500561    -3.7621934736
 ----------------------------------------------------------------

   10   -5663.4964774401      4.30E-06 Convergence criterion met
 Total energy in the final basis set = -5663.4964774401

                    Orbital Energies (a.u.)
 --------------------------------------------------------------

 Alpha MOs
 -- Occupied --
-88.988 -88.984 -88.929 -88.927 -88.919 -88.919 -88.915 -88.907
-14.389 -14.388 -14.386 -14.380 -14.349 -14.347 -14.341 -14.332
-14.330 -14.324 -10.267 -10.263 -10.263 -10.262 -10.255 -10.254
-10.252 -10.252 -10.248 -10.239 -10.238 -10.237 -10.237 -10.235
-10.235 -10.235 -10.234 -10.233 -10.233 -10.232 -10.229 -10.229
-10.227 -10.227 -10.226 -10.225 -10.224 -10.221 -10.217 -10.215
-10.214 -10.210 -10.210 -10.209 -10.205 -10.204 -10.202 -10.200
-10.184 -10.183 -10.182 -10.178 -10.176 -10.175 -10.175 -10.175
-10.173 -10.172 -10.168 -10.168  -8.043  -8.040  -7.990  -7.985
 -7.981  -7.977  -7.976  -7.966  -6.008  -6.006  -6.002  -6.001
 -6.000  -5.998  -5.954  -5.951  -5.950  -5.947  -5.946  -5.945
 -5.942  -5.942  -5.941  -5.940  -5.938  -5.938  -5.937  -5.934
 -5.932  -5.930  -5.927  -5.922  -1.041  -1.034  -0.981  -0.975
 -0.956  -0.946  -0.942  -0.933  -0.911  -0.907  -0.905  -0.900
 -0.847  -0.832  -0.830  -0.826  -0.812  -0.807  -0.806  -0.804
 -0.804  -0.800  -0.797  -0.794  -0.780  -0.777  -0.768  -0.765
 -0.750  -0.745  -0.743  -0.736  -0.721  -0.714  -0.706  -0.705
 -0.691  -0.690  -0.674  -0.670  -0.651  -0.649  -0.644  -0.640
 -0.633  -0.630  -0.624  -0.619  -0.606  -0.604  -0.599  -0.598
 -0.594  -0.593  -0.588  -0.583  -0.581  -0.579  -0.570  -0.560
 -0.551  -0.543  -0.536  -0.535  -0.522  -0.521  -0.516  -0.511
 -0.506  -0.505  -0.498  -0.497  -0.485  -0.478  -0.478  -0.477
 -0.471  -0.468  -0.465  -0.464  -0.462  -0.459  -0.449  -0.446
 -0.443  -0.443  -0.441  -0.437  -0.437  -0.435  -0.430  -0.428
 -0.427  -0.425  -0.420  -0.419  -0.417  -0.416  -0.413  -0.410
 -0.410  -0.407  -0.406  -0.405  -0.400  -0.398  -0.397  -0.395
 -0.390  -0.390  -0.387  -0.386  -0.384  -0.383  -0.382  -0.380
 -0.375  -0.372  -0.369  -0.369  -0.366  -0.360  -0.357  -0.355
 -0.353  -0.351  -0.350  -0.349  -0.347  -0.347  -0.344  -0.340
 -0.338  -0.338  -0.336  -0.329  -0.326  -0.324  -0.319  -0.317
 -0.316  -0.314  -0.313  -0.310  -0.303  -0.301  -0.295  -0.294
 -0.293  -0.291  -0.290  -0.289  -0.288  -0.285  -0.282  -0.274
 -0.271  -0.268  -0.266  -0.265  -0.256  -0.254  -0.250  -0.250
 -0.244  -0.239  -0.228  -0.227  -0.193  -0.191

          Ground-State Mulliken Net Atomic Charges

     Atom                 Charge (a.u.)
  ----------------------------------------
      1 C                     0.294479
      2 C                    -0.099687
      3 N                    -0.487724
      4 C                    -0.099324
      5 C                     0.072960
      6 C                     0.051572
      7 C                     0.069878
      8 C                     0.052176
      9 C                     0.221563
     10 N                    -0.522586
     11 N                    -0.556780
     12 C                     0.186994
     13 C                     0.287162
     14 S                     0.591149
     15 N                    -0.548664
     16 C                    -0.206224
     17 S                     0.322804
     18 C                    -0.130433
     19 C                    -0.248826
     20 S                     0.285761
     21 C                     0.183068
     22 C                     0.093091
     23 C                    -0.307040
     24 C                    -0.068088
     25 N                    -0.445849
     26 S                     0.274517
     27 C                     0.126560
     28 C                    -0.322332
     29 C                    -0.252467
     30 H                     0.092120
     31 H                     0.106742
     32 H                     0.117886
     33 H                     0.099591
     34 H                     0.130843
     35 H                     0.126813
     36 H                     0.115843
     37 H                     0.133477
     38 H                     0.110505
     39 C                    -0.158292
     40 H                     0.115852
     41 H                     0.117017
     42 H                     0.105385
     43 C                    -0.182353
     44 H                     0.081153
     45 C                    -0.178426
     46 H                     0.079976
     47 H                     0.093027
     48 H                     0.087436
     49 C                    -0.176775
     50 H                     0.100515
     51 C                    -0.320392
     52 H                     0.084510
     53 H                     0.100510
     54 H                     0.095585
     55 H                     0.102542
     56 C                     0.244407
     57 C                    -0.125511
     58 N                    -0.455000
     59 C                    -0.068303
     60 C                     0.057692
     61 C                     0.035635
     62 C                     0.037412
     63 C                     0.053569
     64 C                     0.204610
     65 N                    -0.520223
     66 N                    -0.546753
     67 C                     0.188624
     68 C                     0.317884
     69 S                     0.633794
     70 N                    -0.553345
     71 C                    -0.224328
     72 S                     0.368224
     73 C                    -0.140700
     74 C                    -0.231239
     75 S                     0.283691
     76 C                     0.210045
     77 C                     0.023500
     78 C                    -0.303568
     79 C                    -0.108292
     80 N                    -0.403040
     81 S                     0.257022
     82 C                     0.114166
     83 C                    -0.304317
     84 C                    -0.221309
     85 H                     0.093348
     86 H                     0.116625
     87 H                     0.101302
     88 H                     0.112707
     89 H                     0.141695
     90 H                     0.105916
     91 H                     0.112729
     92 H                     0.138838
     93 H                     0.119500
     94 C                    -0.169296
     95 H                     0.091605
     96 H                     0.106297
     97 H                     0.094551
     98 C                    -0.178183
     99 H                     0.098894
    100 C                    -0.172205
    101 H                     0.089191
    102 H                     0.093382
    103 H                     0.088674
    104 C                    -0.187752
    105 H                     0.092521
    106 C                    -0.320107
    107 H                     0.099393
    108 H                     0.104057
    109 H                     0.096716
    110 H                     0.106451
  ----------------------------------------
  Sum of atomic charges =     0.000000

                    Cartesian Multipole Moments
 -----------------------------------------------------------------
    Charge (ESU x 10^10)
                 0.0000
    Dipole Moment (Debye)
         X       2.6422      Y       1.8393      Z      -1.7803
       Tot       3.6788
    Quadrupole Moments (Debye-Ang)
        XX    -406.0354     XY      -2.2046     YY    -414.7093
        XZ      12.1267     YZ       0.7335     ZZ    -455.1313

 Total job time:  106.12s(wall), 1132.44s(cpu)
        *  Thank you very much for using Q-Chem.  Have a nice day.  *
