 Q-Chem 4.4, Q-Chem, Inc., Pleasanton, CA (2016)
 Q-Chem 4.4.2 for Intel X86 Linux

User input:
--------------------------------------------------------------
$comment
SP
$end

$rem
MEM_STATIC 5000
MEM_TOTAL 20000
JOBTYPE SP
EXCHANGE B3LYP
BASIS 6-31g(d,p)
$end

$molecule
0 1
C          28.174000     26.064000      3.183000
C          27.717000     25.031000      3.971000
N          27.372000     27.026000      2.626000
C          26.428000     25.149000      4.367000
C          26.079000     27.050000      2.986000
C          25.561000     26.178000      3.902000
C          24.086000     26.085000      4.285000
C          23.691000     25.474000      5.444000
C          23.035000     26.672000      3.554000
N          22.444000     25.389000      5.927000
N          23.186000     27.250000      2.381000
C          21.715000     26.531000      3.994000
C          21.438000     25.835000      5.215000
S          21.686000     27.593000      1.956000
N          20.795000     26.895000      3.131000
C          20.053000     25.551000      5.694000
S          18.627000     25.909000      4.764000
C          19.645000     24.991000      6.896000
C          17.512000     25.579000      6.117000
S          20.589000     24.405000      8.316000
C          18.295000     25.026000      7.094000
C          16.117000     25.682000      6.083000
C          19.023000     23.936000      9.079000
C          17.928000     24.377000      8.336000
N          15.308000     25.289000      7.050000
S          15.291000     26.086000      4.615000
C          13.977000     25.516000      6.750000
C          13.776000     25.917000      5.442000
C          29.648000     26.209000      2.780000
H          28.374000     24.323000      4.468000
H          26.055000     24.403000      5.063000
H          25.538000     27.883000      2.540000
H          24.465000     25.137000      6.131000
H          18.978000     23.394000     10.014000
H          16.909000     24.271000      8.691000
H          13.164000     25.164000      7.371000
H          12.857000     26.040000      4.883000
H          30.040000     25.278000      2.351000
C          30.604000     26.554000      3.952000
H          29.751000     26.861000      1.904000
H          30.253000     25.963000      4.806000
H          30.419000     27.559000      4.351000
C          32.142000     26.429000      3.604000
H          32.406000     25.628000      2.903000
C          32.896000     26.355000      4.912000
H          32.367000     27.362000      3.072000
H          32.501000     25.488000      5.457000
H          32.622000     27.246000      5.491000
C          34.405000     26.205000      4.563000
H          34.544000     25.397000      3.834000
C          35.091000     26.033000      5.961000
H          34.655000     27.171000      4.107000
H          34.753000     25.201000      6.590000
H          34.830000     26.979000      6.451000
H          36.178000     25.916000      5.873000
C          27.326000     30.690000      0.488000
C          25.995000     30.573000      1.046000
N          27.772000     29.932000     -0.494000
C          25.102000     29.674000      0.466000
C          26.872000     29.102000     -1.078000
C          25.502000     28.902000     -0.641000
C          24.556000     27.939000     -1.386000
C          25.082000     26.839000     -2.117000
C          23.099000     28.042000     -1.451000
N          24.350000     25.985000     -2.832000
N          22.370000     29.043000     -0.894000
C          22.375000     27.130000     -2.234000
C          23.017000     26.163000     -3.012000
S          20.856000     28.796000     -1.391000
N          21.060000     27.459000     -2.378000
C          22.313000     25.174000     -3.895000
S          20.591000     25.142000     -4.109000
C          22.872000     24.090000     -4.585000
C          20.707000     23.797000     -5.286000
S          24.564000     23.510000     -4.574000
C          21.968000     23.317000     -5.348000
C          19.644000     23.346000     -6.033000
C          24.088000     22.155000     -5.649000
C          22.648000     22.183000     -5.877000
N          18.879000     24.239000     -6.544000
S          19.247000     21.715000     -6.430000
C          17.745000     23.670000     -7.060000
C          17.770000     22.306000     -7.135000
C          28.464000     31.572000      1.074000
H          25.668000     31.196000      1.873000
H          24.112000     29.558000      0.897000
H          27.294000     28.560000     -1.924000
H          26.147000     26.616000     -2.072000
H          24.855000     21.454000     -5.951000
H          22.188000     21.487000     -6.569000
H          16.931000     24.284000     -7.423000
H          17.046000     21.541000     -7.383000
H          29.178000     31.964000      0.339000
C          29.126000     30.814000      2.201000
H          28.006000     32.452000      1.541000
H          29.186000     29.742000      1.979000
H          28.446000     30.822000      3.061000
C          30.585000     31.311000      2.418000
H          31.412000     30.848000      1.866000
C          31.086000     30.997000      3.831000
H          30.487000     32.381000      2.198000
H          30.918000     29.917000      3.920000
H          30.598000     31.582000      4.621000
C          32.635000     31.220000      3.941000
H          33.073000     30.648000      3.114000
C          33.101000     30.535000      5.286000
H          32.851000     32.286000      3.797000
H          32.672000     31.067000      6.145000
H          34.193000     30.614000      5.352000
H          32.890000     29.462000      5.371000
$end

--------------------------------------------------------------

             Standard Nuclear Orientation (Angstroms)
    I     Atom           X                Y                Z
 ----------------------------------------------------------------
    1      C      -4.7620287411     0.1205787651    -1.7190818704
    2      C      -4.2967207024     0.9661152587    -2.7016491542
    3      N      -4.1331111998    -0.0930642049    -0.5200337447
    4      C      -3.2789407519     1.7723017900    -2.3189635796
    5      C      -3.0742033746     0.6761145402    -0.2215320266
    6      C      -2.6379394587     1.6700485800    -1.0519132163
    7      C      -1.3876121024     2.5157681611    -0.8229964359
    8      C      -1.2110824107     3.7101243615    -1.4671839354
    9      C      -0.3733918089     2.2031535573     0.1028330871
   10      N      -0.2009594470     4.5748212278    -1.3014313257
   11      N      -0.3144493792     1.0749841782     0.7785354195
   12      C       0.7320490765     3.0489168736     0.2390896890
   13      C       0.8062293115     4.2585621975    -0.5246127945
   14      S       1.0831441735     1.1881523151     1.5415552320
   15      N       1.7303395790     2.5580072672     0.9362903997
   16      C       1.9991143814     5.1559154749    -0.5143997981
   17      S       3.4797588793     4.7694204583     0.3131589449
   18      C       2.1599426917     6.3974941163    -1.1123000673
   19      C       4.1725451712     6.3985675506     0.0925667748
   20      S       1.0318570663     7.3948379007    -2.1040965169
   21      C       3.3171737437     7.0334541288    -0.7669015223
   22      C       5.4225605051     6.8340497740     0.5460057433
   23      C       2.3545146893     8.6111278648    -2.2644135015
   24      C       3.4535366943     8.2949437447    -1.4658314864
   25      N       5.9729586932     7.9950479414     0.2407778123
   26      S       6.5092817501     5.7437950658     1.3402963745
   27      C       7.2112701673     8.1644944029     0.8331987690
   28      C       7.6814876768     7.0175605985     1.4459828599
   29      C      -6.0199688146    -0.7412116770    -1.8951898072
   30      H      -4.8469392532     1.1832451055    -3.6127123660
   31      H      -2.9426851144     2.5167710252    -3.0350352968
   32      H      -2.6802867435     0.4744345194     0.7732749180
   33      H      -2.0303336279     4.0848941649    -2.0779122200
   34      H       2.2618849977     9.4815810396    -2.8998228269
   35      H       4.3014083724     8.9624285873    -1.3600033129
   36      H       7.8596638765     9.0027346058     0.6153617654
   37      H       8.6536883031     6.8014382636     1.8705862966
   38      H      -5.9829662357    -1.3191622807    -2.8274289979
   39      C      -7.3452383737     0.0622009437    -1.9639921072
   40      H      -6.0291202748    -1.5701447266    -1.1769452457
   41      H      -7.1209999057     0.9555240419    -2.5585414758
   42      H      -7.5821437033     0.5467040303    -1.0086996787
   43      C      -8.6021797860    -0.7816735394    -2.4224101945
   44      H      -8.4021292452    -1.5673506804    -3.1609149076
   45      C      -9.6673826210     0.1972025588    -2.8605888163
   46      H      -8.9067024295    -1.3137487494    -1.5123003492
   47      H      -9.2308271277     0.8010101894    -3.6665507550
   48      H      -9.8463422235     0.8754713901    -2.0167150975
   49      C     -10.8906050662    -0.6391697229    -3.3355522422
   50      H     -10.5663378633    -1.4100990470    -4.0455837615
   51      C     -11.8939180929     0.4424581064    -3.8628360457
   52      H     -11.2504180105    -1.1063778420    -2.4104342938
   53      H     -11.5447656000     1.1081510864    -4.6609929182
   54      H     -12.0729472865     1.0351400017    -2.9574003943
   55      H     -12.8225535135    -0.0064784607    -4.2357894130
   56      C      -4.4686980897    -1.9202199952     3.2940112415
   57      C      -3.3961299667    -0.9584986113     3.4399687742
   58      N      -4.3602590893    -3.0290073007     2.5892873990
   59      C      -2.1533403929    -1.2510254261     2.8814420176
   60      C      -3.1293104927    -3.3197410020     2.0991899928
   61      C      -1.9608663083    -2.4629915260     2.1918588829
   62      C      -0.6013521007    -2.8964125203     1.6077549873
   63      C      -0.5461807432    -3.8112955878     0.5210249867
   64      C       0.7145346005    -2.4695756950     2.0809732395
   65      N       0.5788437029    -4.2823086195    -0.0164056782
   66      N       0.9251091178    -1.6559598438     3.1474527843
   67      C       1.8694307236    -3.0100371811     1.4952042347
   68      C       1.7960431922    -4.0014328415     0.5132236267
   69      S       2.5236221479    -1.6336956379     3.3583423233
   70      N       3.0167189392    -2.6941202236     2.1601314685
   71      C       2.9850433585    -4.6463663137    -0.1377490465
   72      S       4.6255447491    -4.2783680711     0.2928743167
   73      C       2.9931494072    -5.5328118929    -1.2230073232
   74      C       5.2590770549    -5.4890041703    -0.8650579149
   75      S       1.6144099136    -6.1108720303    -2.2049996277
   76      C       4.2664722766    -5.9882005061    -1.6331098483
   77      C       6.5814188955    -5.8614600106    -0.9288364651
   78      C       2.7579034992    -7.0295215622    -3.2378265529
   79      C       4.1293423130    -6.7654280004    -2.8185674795
   80      N       7.1820399918    -6.0472727459     0.1885367609
   81      S       7.5232714849    -6.1804438690    -2.3382838738
   82      C       8.5314746640    -6.1840672569    -0.0019529425
   83      C       8.9158120793    -6.3270809626    -1.3052479326
   84      C      -5.9313400274    -1.7040975350     3.7739421160
   85      H      -3.5273277909    -0.0415648648     4.0065432489
   86      H      -1.3522873788    -0.5220195058     2.9600641312
   87      H      -3.1015006633    -4.2822819162     1.5889884620
   88      H      -1.4656673931    -4.1325972737     0.0339022843
   89      H       2.3502380770    -7.6013850348    -4.0610367765
   90      H       4.9554754003    -7.2975644638    -3.2759676395
   91      H       9.2099257215    -6.2272808926     0.8401858491
   92      H       9.8655582972    -6.3565484666    -1.8229532423
   93      H      -6.4660742394    -2.6150375911     4.0704763245
   94      C      -6.6648559393    -0.8973719764     2.7279568007
   95      H      -5.9055910832    -1.0708470987     4.6686956446
   96      H      -6.3495838849    -1.1767886686     1.7157325944
   97      H      -6.3119455567     0.1388539301     2.7892277777
   98      C      -8.1980518675    -1.1534771609     2.8085755341
   99      H      -8.6507844062    -1.9696205308     2.2324286359
  100      C      -8.9977282578    -0.0030253165     2.1895890847
  101      H      -8.3429157733    -1.2780146094     3.8885796418
  102      H      -8.5680509966     0.0858354250     1.1845884779
  103      H      -8.9604863381     0.9306605729     2.7651867735
  104      C     -10.5028584302    -0.4026663761     1.9995885913
  105      H     -10.4869662439    -1.3540205728     1.4540341662
  106      C     -11.1454148898     0.6779000211     1.0430827327
  107      H     -10.9554099567    -0.5599271842     2.9866114654
  108      H     -11.1680218591     1.6545419527     1.5436878290
  109      H     -12.1809293598     0.3816122271     0.8357561171
  110      H     -10.6773803328     0.7775824367     0.0561267714
 ----------------------------------------------------------------

   10   -5663.5040398521      6.27E-06 Convergence criterion met
 Total energy in the final basis set = -5663.5040398521

                    Orbital Energies (a.u.)
 --------------------------------------------------------------

 Alpha MOs
 -- Occupied --
-88.991 -88.986 -88.922 -88.921 -88.921 -88.921 -88.909 -88.908
-14.392 -14.392 -14.389 -14.387 -14.348 -14.347 -14.342 -14.334
-14.327 -14.325 -10.266 -10.265 -10.264 -10.264 -10.257 -10.256
-10.255 -10.254 -10.244 -10.241 -10.238 -10.237 -10.237 -10.234
-10.233 -10.233 -10.231 -10.230 -10.230 -10.230 -10.229 -10.229
-10.228 -10.228 -10.227 -10.225 -10.223 -10.221 -10.218 -10.215
-10.211 -10.210 -10.208 -10.205 -10.205 -10.200 -10.197 -10.195
-10.184 -10.184 -10.181 -10.181 -10.179 -10.178 -10.177 -10.175
-10.174 -10.172 -10.171 -10.170  -8.046  -8.043  -7.984  -7.983
 -7.982  -7.980  -7.968  -7.966  -6.011  -6.008  -6.006  -6.004
 -6.002  -6.001  -5.948  -5.947  -5.946  -5.944  -5.944  -5.943
 -5.942  -5.941  -5.941  -5.940  -5.939  -5.937  -5.932  -5.931
 -5.929  -5.927  -5.924  -5.922  -1.065  -1.037  -0.983  -0.971
 -0.969  -0.956  -0.939  -0.937  -0.931  -0.914  -0.909  -0.903
 -0.838  -0.837  -0.834  -0.824  -0.810  -0.808  -0.808  -0.807
 -0.804  -0.803  -0.802  -0.796  -0.789  -0.777  -0.772  -0.767
 -0.750  -0.746  -0.738  -0.735  -0.723  -0.716  -0.709  -0.705
 -0.695  -0.690  -0.678  -0.675  -0.656  -0.651  -0.648  -0.640
 -0.637  -0.630  -0.626  -0.622  -0.612  -0.605  -0.600  -0.600
 -0.595  -0.594  -0.584  -0.583  -0.581  -0.580  -0.575  -0.568
 -0.556  -0.546  -0.544  -0.536  -0.528  -0.522  -0.517  -0.512
 -0.510  -0.502  -0.499  -0.498  -0.490  -0.486  -0.483  -0.480
 -0.477  -0.474  -0.472  -0.468  -0.467  -0.461  -0.454  -0.450
 -0.445  -0.440  -0.437  -0.437  -0.434  -0.434  -0.432  -0.432
 -0.431  -0.427  -0.426  -0.423  -0.417  -0.416  -0.416  -0.414
 -0.411  -0.408  -0.404  -0.402  -0.401  -0.398  -0.397  -0.396
 -0.394  -0.391  -0.390  -0.389  -0.384  -0.384  -0.382  -0.381
 -0.375  -0.374  -0.371  -0.369  -0.366  -0.362  -0.357  -0.354
 -0.352  -0.350  -0.348  -0.347  -0.346  -0.346  -0.345  -0.343
 -0.341  -0.340  -0.337  -0.333  -0.330  -0.328  -0.327  -0.319
 -0.319  -0.316  -0.315  -0.309  -0.309  -0.303  -0.299  -0.297
 -0.292  -0.291  -0.290  -0.288  -0.286  -0.281  -0.279  -0.276
 -0.275  -0.273  -0.268  -0.264  -0.252  -0.252  -0.251  -0.249
 -0.246  -0.240  -0.234  -0.227  -0.195  -0.194

          Ground-State Mulliken Net Atomic Charges

     Atom                 Charge (a.u.)
  ----------------------------------------
      1 C                     0.247825
      2 C                    -0.094623
      3 N                    -0.489666
      4 C                    -0.084021
      5 C                     0.077915
      6 C                     0.054508
      7 C                     0.088037
      8 C                     0.026257
      9 C                     0.207134
     10 N                    -0.530950
     11 N                    -0.541116
     12 C                     0.196617
     13 C                     0.332245
     14 S                     0.594098
     15 N                    -0.551393
     16 C                    -0.241530
     17 S                     0.324583
     18 C                    -0.106649
     19 C                    -0.226392
     20 S                     0.261140
     21 C                     0.154967
     22 C                     0.074504
     23 C                    -0.308699
     24 C                    -0.052075
     25 N                    -0.455217
     26 S                     0.261827
     27 C                     0.120888
     28 C                    -0.307052
     29 C                    -0.229941
     30 H                     0.099482
     31 H                     0.096717
     32 H                     0.120610
     33 H                     0.106120
     34 H                     0.129933
     35 H                     0.129225
     36 H                     0.118156
     37 H                     0.136480
     38 H                     0.098442
     39 C                    -0.198631
     40 H                     0.121412
     41 H                     0.085256
     42 H                     0.107551
     43 C                    -0.183307
     44 H                     0.091651
     45 C                    -0.172212
     46 H                     0.099337
     47 H                     0.093285
     48 H                     0.099333
     49 C                    -0.183426
     50 H                     0.096429
     51 C                    -0.313278
     52 H                     0.102207
     53 H                     0.104630
     54 H                     0.105404
     55 H                     0.093126
     56 C                     0.254882
     57 C                    -0.123464
     58 N                    -0.455168
     59 C                    -0.068855
     60 C                     0.067430
     61 C                     0.040004
     62 C                     0.045501
     63 C                     0.060743
     64 C                     0.210768
     65 N                    -0.517333
     66 N                    -0.556076
     67 C                     0.202475
     68 C                     0.312227
     69 S                     0.607587
     70 N                    -0.552561
     71 C                    -0.222202
     72 S                     0.362469
     73 C                    -0.144093
     74 C                    -0.231754
     75 S                     0.286603
     76 C                     0.210126
     77 C                     0.024600
     78 C                    -0.301443
     79 C                    -0.114076
     80 N                    -0.404508
     81 S                     0.256261
     82 C                     0.113972
     83 C                    -0.304406
     84 C                    -0.223647
     85 H                     0.091532
     86 H                     0.116433
     87 H                     0.099180
     88 H                     0.120528
     89 H                     0.139580
     90 H                     0.106001
     91 H                     0.112739
     92 H                     0.139276
     93 H                     0.116439
     94 C                    -0.178783
     95 H                     0.088996
     96 H                     0.128798
     97 H                     0.094284
     98 C                    -0.176851
     99 H                     0.095760
    100 C                    -0.183266
    101 H                     0.087318
    102 H                     0.103812
    103 H                     0.088099
    104 C                    -0.186222
    105 H                     0.091037
    106 C                    -0.331383
    107 H                     0.100166
    108 H                     0.105166
    109 H                     0.096925
    110 H                     0.111224
  ----------------------------------------
  Sum of atomic charges =     0.000000

                    Cartesian Multipole Moments
 -----------------------------------------------------------------
    Charge (ESU x 10^10)
                 0.0000
    Dipole Moment (Debye)
         X       2.2005      Y       1.5243      Z      -1.5717
       Tot       3.1042
    Quadrupole Moments (Debye-Ang)
        XX    -392.2747     XY      -3.9046     YY    -446.6724
        XZ       6.3262     YZ      17.9477     ZZ    -430.1965

 Total job time:  99.26s(wall), 1092.71s(cpu)
        *  Thank you very much for using Q-Chem.  Have a nice day.  *
