 Q-Chem 4.4, Q-Chem, Inc., Pleasanton, CA (2016)
 Q-Chem 4.4.2 for Intel X86 Linux

User input:
--------------------------------------------------------------
$comment
SP
$end

$rem
MEM_STATIC 5000
MEM_TOTAL 20000
JOBTYPE SP
EXCHANGE B3LYP
BASIS 6-31g(d,p)
$end

$molecule
0 1
C          20.553000      5.604000     15.100000
C          21.481000      6.671000     15.101000
N          20.768000      4.508000     14.405000
C          22.726000      6.445000     14.438000
C          21.912000      4.332000     13.719000
C          22.966000      5.301000     13.702000
C          24.267000      5.047000     12.991000
C          24.799000      3.725000     13.049000
C          25.003000      5.991000     12.281000
N          26.089000      3.437000     12.627000
N          24.598000      7.266000     12.089000
C          26.266000      5.717000     11.795000
C          26.803000      4.418000     12.024000
S          25.882000      8.017000     11.384000
N          26.849000      6.738000     11.170000
C          28.107000      3.951000     11.564000
S          28.995000      4.618000     10.149000
C          28.779000      2.780000     11.986000
C          29.962000      3.177000     10.021000
S          28.422000      1.950000     13.449000
C          29.693000      2.335000     11.101000
C          31.118000      3.058000      9.145000
C          29.818000      0.944000     12.902000
C          30.414000      1.281000     11.712000
N          31.678000      1.878000      8.943000
S          31.876000      4.372000      8.319000
C          32.740000      1.965000      8.046000
C          32.992000      3.214000      7.576000
C          19.266000      5.745000     15.881000
H          21.244000      7.592000     15.624000
H          23.429000      7.264000     14.554000
H          22.011000      3.364000     13.231000
H          24.357000      2.924000     13.639000
H          30.279000      0.239000     13.581000
H          31.323000      0.807000     11.360000
H          33.187000      1.015000      7.785000
H          33.692000      3.576000      6.835000
H          19.043000      6.819000     15.916000
C          19.386000      5.180000     17.307000
H          18.425000      5.225000     15.406000
H          20.286000      5.614000     17.760000
H          19.530000      4.102000     17.454000
C          18.222000      5.673000     18.158000
H          18.097000      6.733000     17.904000
C          18.491000      5.562000     19.664000
H          17.360000      5.020000     17.971000
H          17.728000      6.050000     20.282000
H          19.457000      6.048000     19.849000
C          18.727000      4.105000     20.073000
H          17.854000      3.449000     19.974000
C          19.078000      3.927000     21.514000
H          19.520000      3.603000     19.504000
H          18.259000      4.254000     22.166000
H          20.062000      4.375000     21.703000
H          19.203000      2.852000     21.689000
C          17.645000      1.523000     12.907000
C          18.797000      2.155000     12.369000
N          17.541000      0.239000     13.022000
C          19.730000      1.348000     11.738000
C          18.467000     -0.545000     12.464000
C          19.610000     -0.080000     11.854000
C          20.738000     -0.875000     11.306000
C          21.386000     -0.578000     10.055000
C          21.263000     -1.979000     11.948000
N          22.489000     -1.279000      9.561000
N          20.747000     -2.486000     13.116000
C          22.383000     -2.712000     11.487000
C          23.023000     -2.299000     10.314000
S          21.632000     -3.708000     13.622000
N          22.698000     -3.677000     12.410000
C          24.318000     -2.843000      9.857000
S          25.245000     -4.001000     10.834000
C          24.959000     -2.652000      8.608000
C          26.396000     -4.203000      9.537000
S          24.608000     -1.580000      7.319000
C          26.168000     -3.324000      8.491000
C          27.521000     -5.085000      9.623000
C          26.145000     -2.054000      6.635000
C          26.785000     -3.100000      7.249000
N          27.461000     -6.013000     10.522000
S          29.026000     -4.829000      8.778000
C          28.639000     -6.734000     10.491000
C          29.499000     -6.313000      9.538000
C          16.610000      2.303000     13.781000
H          18.936000      3.226000     12.477000
H          20.619000      1.751000     11.264000
H          18.454000     -1.624000     12.607000
H          21.037000      0.170000      9.344000
H          26.449000     -1.544000      5.731000
H          27.705000     -3.590000      6.952000
H          28.790000     -7.562000     11.171000
H          30.455000     -6.779000      9.338000
H          15.821000      1.632000     14.141000
C          15.840000      3.344000     12.915000
H          17.145000      2.845000     14.571000
H          15.629000      2.794000     11.989000
H          16.466000      4.205000     12.648000
C          14.595000      3.943000     13.559000
H          14.006000      3.175000     14.075000
C          13.826000      4.840000     12.578000
H          14.870000      4.526000     14.447000
H          13.458000      4.215000     11.754000
H          14.548000      5.518000     12.105000
C          12.759000      5.595000     13.302000
H          12.172000      4.916000     13.933000
C          11.779000      6.285000     12.376000
H          13.283000      6.312000     13.946000
H          10.902000      6.644000     12.928000
H          11.355000      5.527000     11.704000
H          12.302000      6.976000     11.704000
$end

--------------------------------------------------------------

             Standard Nuclear Orientation (Angstroms)
    I     Atom           X                Y                Z
 ----------------------------------------------------------------
    1      C       5.5204878807     2.5411902595    -0.6285823680
    2      C       5.1234244486     3.8982849497    -0.6110144250
    3      N       4.6644290347     1.5723674280    -0.3856593897
    4      C       3.7265844999     4.1609072116    -0.4677046024
    5      C       3.3610355676     1.8316932400    -0.1753653264
    6      C       2.8156431561     3.1551542990    -0.2094819334
    7      C       1.3421905952     3.4113752838    -0.0484652957
    8      C       0.4448967511     2.4810709029    -0.6513496263
    9      C       0.7733127321     4.4810372230     0.6364677760
   10      N      -0.9139924300     2.7402356094    -0.7580353728
   11      N       1.4925507407     5.4081617338     1.3070278618
   12      C      -0.5838904391     4.7322811574     0.6001767647
   13      C      -1.4076163066     3.8470654007    -0.1522059565
   14      S       0.3960074985     6.5494358540     1.7595411770
   15      N      -0.9620337270     5.8138126927     1.2785956560
   16      C      -2.8578732907     3.9485905222    -0.2808618150
   17      S      -3.9404093833     4.7470030590     0.9134208271
   18      C      -3.6707046443     3.2619842272    -1.2129487134
   19      C      -5.3215432714     3.8789311101     0.3077193539
   20      S      -3.0733123454     2.5599405470    -2.6644910354
   21      C      -4.9581291477     3.1548076234    -0.8286346186
   22      C      -6.6918450938     4.1691728860     0.7025682197
   23      C      -4.8294306435     2.2124197415    -2.8997330651
   24      C      -5.6933618842     2.6185130233    -1.9130233520
   25      N      -7.6674914215     3.3430822557     0.3671691831
   26      S      -7.1937709754     5.5616325027     1.5928280836
   27      C      -8.8935071998     3.7718096726     0.8702597449
   28      C      -8.8487497017     4.9297228406     1.5785244282
   29      C       6.9701381815     2.2000857045    -0.8900640839
   30      H       5.8653197210     4.6794979063    -0.7423031197
   31      H       3.4764835878     5.2136039574    -0.5554832737
   32      H       2.7324991310     0.9523792637    -0.0460676888
   33      H       0.7691617629     1.6524765137    -1.2785246738
   34      H      -5.1934376189     1.8798246438    -3.8627836468
   35      H      -6.7702653904     2.5534309732    -2.0174463626
   36      H      -9.7157492696     3.0921097339     0.6903820865
   37      H      -9.6085618991     5.4629665791     2.1339175682
   38      H       7.5566861017     3.0591255430    -0.5401468179
   39      C       7.2465986121     1.9391563933    -2.3808982548
   40      H       7.2974048961     1.3045357221    -0.3476687239
   41      H       6.8299827828     2.7815817079    -2.9468627766
   42      H       6.7990065973     1.0655649627    -2.8717428337
   43      C       8.7474970971     1.9739594834    -2.6421232204
   44      H       9.1291657040     2.8259165790    -2.0657212931
   45      C       9.0939776218     2.1922525312    -4.1203036530
   46      H       9.1618436686     0.9889550432    -2.3921128779
   47      H      10.1613559034     2.3692413589    -4.2981112984
   48      H       8.5315668896     3.0747753409    -4.4495826510
   49      C       8.5397667992     1.0574492840    -4.9868473359
   50      H       8.9980623032     0.0764842989    -4.8138186414
   51      C       8.7668955137     1.2439926991    -6.4514223942
   52      H       7.4620825155     0.8877361727    -4.8668138219
   53      H       9.8374581841     1.2578355537    -6.6891153561
   54      H       8.1773654118     2.1012779999    -6.8009895151
   55      H       8.3477304308     0.3683446923    -6.9607515622
   56      C       5.6100690581    -2.6535328752     1.0822948243
   57      C       4.6497080615    -1.6542513274     1.3907022572
   58      N       5.2840520411    -3.8237358696     0.6384087392
   59      C       3.3198524981    -2.0408716419     1.4343819179
   60      C       3.9980032117    -4.1834489024     0.6249572504
   61      C       2.9560798136    -3.3457923543     0.9528309148
   62      C       1.5003976128    -3.6246695422     0.8637812419
   63      C       0.5536289186    -3.2391018422     1.8777243312
   64      C       0.9245642775    -4.2878883899    -0.2016584467
   65      N      -0.8253991132    -3.4385229918     1.7749678589
   66      N       1.6513935290    -4.8123612057    -1.2428964140
   67      C      -0.4668012865    -4.5038543230    -0.3488677641
   68      C      -1.3335595208    -4.0086415267     0.6307201338
   69      S       0.6754366149    -5.4390396375    -2.3325418815
   70      N      -0.7020864358    -5.0996271237    -1.5621586066
   71      C      -2.8026294393    -3.9790254608     0.4798345382
   72      S      -3.5994414457    -4.4684598162    -1.0302537501
   73      C      -3.7806917691    -3.6903471477     1.4634106210
   74      C      -5.1664622119    -4.3093977565    -0.2772868322
   75      S      -3.6256169494    -3.0636337589     3.0499439892
   76      C      -5.0851224305    -3.7676454537     0.9949667912
   77      C      -6.3930252910    -4.5834906008    -0.9638442776
   78      C      -5.3652675985    -2.8947697839     3.0486882304
   79      C      -6.0283425717    -3.4593728735     1.9893172231
   80      N      -6.3096652365    -5.3153327757    -2.0270672704
   81      S      -7.9096190469    -3.8021665922    -0.5976992612
   82      C      -7.5706385268    -5.4385120180    -2.5777570519
   83      C      -8.5299636667    -4.8100535211    -1.8637646194
   84      C       7.1147682762    -2.3040233137     0.8430787515
   85      H       4.9606439443    -0.6282796857     1.5601928679
   86      H       2.5244618485    -1.3526257941     1.7009853076
   87      H       3.6803662660    -5.1278461825     0.1866884424
   88      H       0.8259131693    -2.8230527030     2.8470490449
   89      H      -5.8055211539    -2.4266472438     3.9186135689
   90      H      -7.0978620836    -3.5265633438     1.8270752607
   91      H      -7.7178029313    -6.0171365910    -3.4801545483
   92      H      -9.5816962783    -4.8272900141    -2.1180349815
   93      H       7.6837206895    -3.2008573543     0.5704180557
   94      C       7.7828401590    -1.8344294046     2.1696150382
   95      H       7.1806185965    -1.4828099335     0.1182606229
   96      H       7.3865430246    -2.5374065081     2.9134354287
   97      H       7.4567770726    -0.8288248454     2.4644511524
   98      C       9.3056348704    -1.7685697845     2.1517047808
   99      H       9.7351751507    -2.6425786310     1.6471211070
  100      C       9.8745001747    -1.4414223811     3.5401203677
  101      H       9.6445241159    -1.0130161355     1.4317389740
  102      H       9.6247356842    -2.2669399888     4.2192104785
  103      H       9.3184173653    -0.5828389386     3.9379939424
  104      C      11.3361433099    -1.1479504895     3.4393057157
  105      H      11.8426575016    -1.9269906555     2.8559440840
  106      C      12.0305044482    -1.0905162501     4.7841253757
  107      H      11.4145941747    -0.1954989388     2.9007126361
  108      H      13.1206187462    -1.0870542793     4.6643220703
  109      H      11.8419369177    -2.0388287849     5.3047688457
  110      H      11.5654051502    -0.3345030272     5.4281134577
 ----------------------------------------------------------------

    9   -5663.5185557035      8.98E-06 Convergence criterion met
 Total energy in the final basis set = -5663.5185557035

                    Orbital Energies (a.u.)
 --------------------------------------------------------------

 Alpha MOs
 -- Occupied --
-88.993 -88.989 -88.926 -88.925 -88.924 -88.917 -88.911 -88.909
-14.390 -14.384 -14.370 -14.364 -14.353 -14.349 -14.338 -14.335
-14.329 -14.315 -10.269 -10.265 -10.258 -10.258 -10.257 -10.255
-10.248 -10.246 -10.245 -10.242 -10.242 -10.240 -10.235 -10.233
-10.231 -10.230 -10.229 -10.228 -10.227 -10.225 -10.223 -10.222
-10.222 -10.221 -10.220 -10.220 -10.219 -10.219 -10.212 -10.209
-10.205 -10.203 -10.203 -10.202 -10.199 -10.198 -10.194 -10.190
-10.188 -10.180 -10.177 -10.176 -10.176 -10.172 -10.171 -10.171
-10.171 -10.170 -10.168 -10.167  -8.049  -8.044  -7.987  -7.985
 -7.985  -7.975  -7.971  -7.970  -6.014  -6.009  -6.008  -6.006
 -6.003  -6.002  -5.951  -5.949  -5.949  -5.947  -5.946  -5.946
 -5.943  -5.942  -5.942  -5.940  -5.936  -5.935  -5.934  -5.932
 -5.932  -5.931  -5.927  -5.926  -1.047  -1.029  -0.975  -0.965
 -0.953  -0.945  -0.943  -0.937  -0.917  -0.911  -0.910  -0.884
 -0.846  -0.845  -0.836  -0.828  -0.816  -0.809  -0.809  -0.806
 -0.801  -0.801  -0.796  -0.791  -0.788  -0.778  -0.769  -0.762
 -0.755  -0.748  -0.747  -0.742  -0.723  -0.721  -0.714  -0.707
 -0.697  -0.692  -0.676  -0.669  -0.656  -0.651  -0.647  -0.638
 -0.635  -0.632  -0.629  -0.616  -0.606  -0.601  -0.597  -0.596
 -0.590  -0.589  -0.588  -0.577  -0.575  -0.572  -0.565  -0.561
 -0.555  -0.541  -0.538  -0.536  -0.528  -0.518  -0.516  -0.515
 -0.508  -0.502  -0.501  -0.495  -0.494  -0.483  -0.477  -0.476
 -0.472  -0.471  -0.470  -0.470  -0.461  -0.460  -0.456  -0.449
 -0.445  -0.443  -0.436  -0.433  -0.433  -0.431  -0.430  -0.427
 -0.425  -0.423  -0.421  -0.419  -0.418  -0.413  -0.412  -0.412
 -0.409  -0.408  -0.407  -0.401  -0.401  -0.400  -0.399  -0.397
 -0.395  -0.392  -0.390  -0.388  -0.386  -0.386  -0.383  -0.380
 -0.379  -0.377  -0.376  -0.370  -0.367  -0.366  -0.358  -0.357
 -0.355  -0.352  -0.351  -0.348  -0.345  -0.343  -0.343  -0.340
 -0.334  -0.333  -0.331  -0.328  -0.326  -0.323  -0.319  -0.317
 -0.315  -0.314  -0.309  -0.307  -0.304  -0.300  -0.298  -0.296
 -0.291  -0.289  -0.288  -0.286  -0.284  -0.282  -0.280  -0.278
 -0.277  -0.275  -0.269  -0.258  -0.255  -0.254  -0.249  -0.246
 -0.240  -0.238  -0.234  -0.228  -0.194  -0.188

          Ground-State Mulliken Net Atomic Charges

     Atom                 Charge (a.u.)
  ----------------------------------------
      1 C                     0.284585
      2 C                    -0.122115
      3 N                    -0.484858
      4 C                    -0.071585
      5 C                     0.060406
      6 C                     0.046100
      7 C                     0.016765
      8 C                     0.049568
      9 C                     0.243813
     10 N                    -0.524094
     11 N                    -0.560890
     12 C                     0.232574
     13 C                     0.295212
     14 S                     0.602321
     15 N                    -0.562064
     16 C                    -0.221943
     17 S                     0.312342
     18 C                    -0.098555
     19 C                    -0.216103
     20 S                     0.288275
     21 C                     0.153035
     22 C                     0.059105
     23 C                    -0.288791
     24 C                    -0.059434
     25 N                    -0.438093
     26 S                     0.259742
     27 C                     0.126707
     28 C                    -0.312903
     29 C                    -0.227120
     30 H                     0.092522
     31 H                     0.105491
     32 H                     0.105376
     33 H                     0.126518
     34 H                     0.111793
     35 H                     0.124695
     36 H                     0.115121
     37 H                     0.136867
     38 H                     0.096540
     39 C                    -0.177071
     40 H                     0.116366
     41 H                     0.087515
     42 H                     0.115313
     43 C                    -0.167733
     44 H                     0.082907
     45 C                    -0.168747
     46 H                     0.097113
     47 H                     0.088956
     48 H                     0.086612
     49 C                    -0.179314
     50 H                     0.090630
     51 C                    -0.313098
     52 H                     0.096646
     53 H                     0.100571
     54 H                     0.097745
     55 H                     0.096037
     56 C                     0.260711
     57 C                    -0.102114
     58 N                    -0.473595
     59 C                    -0.089356
     60 C                     0.085504
     61 C                     0.047790
     62 C                     0.028445
     63 C                     0.040006
     64 C                     0.196716
     65 N                    -0.534599
     66 N                    -0.555161
     67 C                     0.235302
     68 C                     0.309443
     69 S                     0.626615
     70 N                    -0.582419
     71 C                    -0.226842
     72 S                     0.372058
     73 C                    -0.123822
     74 C                    -0.226910
     75 S                     0.299125
     76 C                     0.140568
     77 C                     0.078052
     78 C                    -0.309387
     79 C                    -0.070359
     80 N                    -0.434491
     81 S                     0.266579
     82 C                     0.120199
     83 C                    -0.299903
     84 C                    -0.226922
     85 H                     0.109582
     86 H                     0.094306
     87 H                     0.108779
     88 H                     0.120638
     89 H                     0.124512
     90 H                     0.111854
     91 H                     0.114535
     92 H                     0.122500
     93 H                     0.115297
     94 C                    -0.187031
     95 H                     0.113579
     96 H                     0.097448
     97 H                     0.088418
     98 C                    -0.180817
     99 H                     0.088344
    100 C                    -0.162043
    101 H                     0.084257
    102 H                     0.091359
    103 H                     0.088608
    104 C                    -0.169447
    105 H                     0.092585
    106 C                    -0.317808
    107 H                     0.092628
    108 H                     0.098617
    109 H                     0.099712
    110 H                     0.100984
  ----------------------------------------
  Sum of atomic charges =     0.000000

                    Cartesian Multipole Moments
 -----------------------------------------------------------------
    Charge (ESU x 10^10)
                 0.0000
    Dipole Moment (Debye)
         X      -3.1632      Y       4.8986      Z      -0.3999
       Tot       5.8448
    Quadrupole Moments (Debye-Ang)
        XX    -386.8199     XY      13.2932     YY    -437.6968
        XZ      -6.0485     YZ      11.0437     ZZ    -434.9377

 Total job time:  85.27s(wall), 937.65s(cpu)
        *  Thank you very much for using Q-Chem.  Have a nice day.  *
